ITEM: TIMESTEP
104
ITEM: NUMBER OF ATOMS
200
ITEM: BOX BOUNDS pp pp pp
0 30.0
0 30.0
0 30.0
ITEM: ATOMS id mol type x y z
0 0 0 9.492127657405728 11.003568063295784 21.198551009779276
1 0 0 8.887102979523554 11.442933805251768 22.822831130106984
2 0 0 8.281956129111787 11.882378937265731 24.44740136953832
3 0 0 7.706185666233565 12.316544669845516 26.084768821646612
4 0 0 7.205521866768062 12.74299779018842 27.74928403941508
5 0 0 6.739748980594971 13.175461450135032 29.42255923923108
6 0 0 6.2940822622551496 13.620452452336897 1.0984676206365398
7 0 0 5.861915548945905 14.086979155198177 2.772874649745144
8 0 0 5.432688729793461 14.58730860867542 4.439263085353429
9 0 0 4.986425650148422 15.139017564606 6.085548905943267
10 0 0 4.489359237374686 15.78249111473914 7.684725574423152
11 0 0 3.9710147019458653 16.502276777174462 9.246289495562063
12 0 0 3.445260995251724 17.22188744630219 10.80646677742984
13 0 0 3.0640393988793053 17.64203031131964 12.51432576934013
14 0 0 2.6512563707516374 18.089045053232116 14.207707321860664
15 0 0 2.183078669101656 18.573209990558407 15.877881271120106
16 0 0 1.7033496677535538 19.068733923738296 17.542629839981757
17 0 0 1.213691267652443 19.630523508628492 19.18526779755376
18 0 0 0.7142919920295329 20.268873286098927 20.798817872403333
19 0 0 0.22056180806063638 20.98879655924845 22.381146232680248
20 0 0 29.768706291712462 21.792560615452334 23.936686939036925
21 0 0 29.399063500802203 22.65063321115853 25.485851376491944
22 0 0 29.016012625859567 23.50739994117625 27.033170446113648
23 0 0 28.57629593456382 24.392459541961642 28.54825903342882
24 0 0 28.080285030051737 25.370618200574256 29.98725854915414
25 0 0 27.510811452312574 26.571238931073655 1.2192806301064434
26 0 0 26.202338878260157 27.481424890893578 2.0818825574252906
27 0 0 24.95351880440719 28.49677932481854 2.918318167723293
28 0 0 23.727535473017195 29.56963883069747 3.7220307082990547
29 0 0 22.50970169749289 0.6683433071829049 4.508650509792811
30 0 0 21.299218119397196 1.7860334496862322 5.283499601748901
31 0 0 20.093504015121272 2.9148809474512283 6.050879736201209
32 0 0 18.868152285897935 4.040093449423645 6.795059580588267
33 0 0 17.62974373916234 5.1613304469919346 7.525210840941567
34 0 0 16.359439824595466 6.262117326375715 8.231089598276753
35 0 0 15.081220395686001 7.344107873163562 8.95247381367335
36 0 0 13.802499061889847 8.411440130009394 9.695125520642407
37 0 0 12.496602737884853 9.44040918709922 10.44882790121026
38 0 0 11.170363768247848 10.4367407057454 11.213409398123044
39 0 0 9.650561719553682 11.486926577823004 10.843702019204642
40 0 0 8.210542017282819 11.957842918385813 11.844991851623105
41 0 0 8.169962876012153 12.111032130655037 13.650629982315978
42 0 0 9.21554125557141 11.922121087583491 15.121651613709862
43 0 0 10.626078299111276 11.176167637756965 15.989489483084812
44 0 0 12.370785776329098 10.67824340659655 15.915427752103914
45 0 0 14.156865193089317 10.509154925572407 15.636291061242868
46 0 0 15.938784246529984 10.513586409859913 15.278622441415388
47 0 0 17.4177448139157 11.571650893008995 15.21469385855702
48 0 0 18.495832333464705 13.034527555913943 15.234727122519626
49 0 0 19.215703205921713 14.708546580140633 15.294404385726542
50 0 0 19.132318419854844 16.326713342339115 14.479932853184863
51 0 0 18.74150614017184 17.133869253300066 12.908793857426994
52 0 0 18.570046074823303 18.06295262593319 11.367506168874776
53 0 0 18.641888279741167 18.811953215683417 9.726133327626012
54 0 0 18.728072858463957 19.17225776333658 7.9603104279784995
55 0 0 18.72704154043913 18.895774810684518 6.180513758415196
56 0 0 18.82946042521264 18.230001741822846 4.51321664902931
57 0 0 18.97555973159605 17.51762340140845 2.870892666988836
58 0 0 19.19907103485072 16.837743582769477 1.2263134432073355
59 0 0 19.486769365921006 16.319209715027334 29.5356346436936
60 0 0 19.81080391405978 15.9676201002776 27.810229520869683
61 0 0 20.19547868007453 15.749747487122933 26.07607616726047
62 0 0 20.648706826400172 15.638408942018502 24.348200039156072
63 0 0 21.112489078251347 15.559812823262645 22.62082411850918
64 0 0 21.460143566719363 15.593670679778652 20.863863317641336
65 0 0 21.3127675188843 16.000870318570872 19.125212106885343
66 0 0 20.006073114428705 16.809957204069985 18.204020022071816
67 0 0 19.3755620875202 18.467974530243914 17.93744146899615
68 0 0 18.964210312950176 20.20807607559002 18.071227937586666
69 0 0 18.724190271019978 21.976812358816357 18.244050055627934
70 0 0 18.5224576768843 23.74683415696104 18.447128398715314
71 0 0 18.342169025679176 25.51338700689105 18.693196447719444
72 0 0 18.18036786162725 27.27667592547636 18.97094160674922
73 0 0 18.036201731652728 29.03825154626508 19.268756435592127
74 0 0 17.914549831264285 0.798637407953008 19.585005495568428
75 0 0 17.825088105037242 2.5576535179826982 19.92062875760247
76 0 0 17.772870884104606 4.314627064645142 20.273617503110437
77 0 0 17.761778165577823 6.069268516634849 20.645352891769825
78 0 0 17.798822904546796 7.818309109079242 21.042864226733116
79 0 0 17.89311810946653 9.555080117449691 21.47804739642077
80 0 0 18.044559812875615 11.285857376526247 21.924067332464862
81 0 0 18.24825192922249 13.016363735794009 22.351089366441833
82 0 0 18.609209760092163 14.727301762191827 21.946256270499777
83 0 0 19.17722842533685 16.29132687331922 21.275352396430698
84 0 0 20.07270210994478 17.605838357010594 20.442978954404712
85 0 0 21.228452380681937 18.37681202585105 19.305528895431756
86 0 0 21.785054867685815 18.24984628097298 17.60352235720833
87 0 0 22.265803481120933 17.992593512929858 15.895062584567187
88 0 0 22.768849656558768 17.741334823699123 14.192592100959686
89 0 0 23.336735046767334 17.528190260993192 12.505736155475306
90 0 0 23.95099764728485 17.340377730780656 10.832598201170486
91 0 0 24.604381259435982 17.16702880970079 9.173030856902527
92 0 0 25.295016600503327 17.000735730535105 7.528879018861752
93 0 0 26.02450625809728 16.83612807896216 5.902113961313189
94 0 0 26.796326216924452 16.66884550297547 4.295499782153143
95 0 0 27.614131619101634 16.496010487952404 2.7128758562315847
96 0 0 28.48620411304523 16.31490849874857 1.1608066156476027
97 0 0 29.420032083512524 16.123757544768726 29.646674453627742
98 0 0 0.3571943271342836 15.931614438233552 28.135333695945462
99 0 0 1.294069352350814 15.739522200219763 26.624436614623537
100 1 1 23.014988337919927 22.848343292627963 4.751179506214237
101 1 1 23.93176400703226 23.83246177466037 3.1689917759320902
102 1 1 24.847082005428202 24.818537426791295 1.5709848076259771
103 1 1 25.72556836285277 25.79761821388973 29.934776384115576
104 1 1 26.768713825388563 26.802550864296304 28.405785541872905
105 1 1 27.80566408368981 27.773882383588354 26.829817801414443
106 1 1 28.85353386413929 28.74787377338192 25.24308491032357
107 1 1 29.90387337659132 29.72822243156961 23.655844675753187
108 1 1 0.9588596350073371 0.7161994543002709 22.06833555483423
109 1 1 2.0217631704243004 1.717846933798168 20.473672638246413
110 1 1 3.088669646683296 2.726962238316793 18.88473085487173
111 1 1 4.17166612185217 3.754767991850488 17.2878909968487
112 1 1 5.260429232079585 4.798033338434286 15.715350345460315
113 1 1 6.363772039364849 5.851252368200137 14.166084982894358
114 1 1 7.43757376278205 6.890398603053493 12.59956607783703
115 1 1 8.440577026685013 8.03015492061229 11.059062162991761
116 1 1 9.659972493280778 9.366259437761059 9.884445134254262
117 1 1 10.918889351944689 10.989593318600935 9.252610564805796
118 1 1 11.556195732375272 12.532738878898279 10.584648912193884
119 1 1 11.607541880265586 13.702019922840472 12.352354813622293
120 1 1 12.637174402345112 15.242155020551378 13.332134325066283
121 1 1 13.632344018121199 16.751582873814336 14.370545701802406
122 1 1 14.011835495359815 17.408860247642114 16.30724925567003
123 1 1 14.688275927507995 16.724970463444897 18.139920516317737
124 1 1 16.054139990684217 15.16488342051508 18.23914543432382
125 1 1 17.748451561211873 15.536678697387629 19.368171242616487
126 1 1 19.456586520194872 14.400219130828235 19.615894842319353
127 1 1 18.324330242781947 12.689462057436918 19.871764710707595
128 1 1 16.459223569713682 13.5439473038947 20.151255752544852
129 1 1 15.635851012861847 15.366111361449118 20.694082770686713
130 1 1 16.125184303882314 17.292677644222145 20.096338751633514
131 1 1 17.00747611678378 17.63821195673529 18.24562189689457
132 1 1 17.903609746225126 16.265697919907723 16.969349472042786
133 1 1 18.3088733078152 14.258261128102617 17.31911962860012
134 1 1 17.033052703590208 12.675109344032723 17.728834586698888
135 1 1 15.119275279728926 12.009222682700274 18.18572278825374
136 1 1 13.196746805993214 12.28160660449596 17.432297201362346
137 1 1 11.623015204269096 13.384145987816805 16.600615450264105
138 1 1 10.282176765491863 14.202772957306028 15.196218619714239
139 1 1 9.487670853397638 14.191968165940748 13.244499234136557
140 1 1 9.518283349402576 13.840402816454946 11.153181148603691
141 1 1 10.260514085794467 14.149518366029902 9.192347718780844
142 1 1 10.930258236422308 14.24791201798018 7.184241557204598
143 1 1 11.493852130732558 14.20974381103343 5.1407096300549595
144 1 1 11.91434102480165 14.144755834804892 3.0594239057897394
145 1 1 12.2110385053082 14.093599478482135 0.9550123409971495
146 1 1 12.396489396944474 14.084187794968802 28.837130330427957
147 1 1 12.500020728593276 14.12903418645222 26.716021692411125
148 1 1 12.58872006512336 14.215738396624149 24.59794990498255
149 1 1 12.72199754976682 14.329109349283012 22.485458977530957
150 1 1 13.018742660826947 14.432626534507206 20.39268025991696
151 1 1 13.569312651056126 14.587881410156072 18.356472433280807
152 1 1 14.463852210165742 14.8342101372143 16.449917859391196
153 1 1 15.993255740513355 14.924783037133743 14.987101560305288
154 1 1 17.652114471589663 14.613277469152331 13.704178946133434
155 1 1 19.691385604807856 14.359797232237447 13.146298608324212
156 1 1 21.817000256037147 14.342087420285369 13.08095871735388
157 1 1 23.945570114681843 14.39230740984134 13.026446831012478
158 1 1 26.071848031857797 14.530068752453213 12.94311735427066
159 1 1 28.194028398272664 14.72616528240878 12.824627926863629
160 1 1 0.3139208727113066 14.95954712314706 12.667998883279303
161 1 1 2.4294751681298234 15.220863705598516 12.470164913828409
162 1 1 4.5394073065481715 15.486821377113273 12.235154800742972
163 1 1 6.6327963527422105 15.781123343517178 11.935942170859946
164 1 1 8.722060852790799 16.06631580692054 11.623583692968873
165 1 1 10.81496444041035 15.818768045471598 11.26089407760144
166 1 1 12.704028232171328 14.921945253929255 10.851966667484875
167 1 1 13.666805643974671 13.180049752464411 11.607820251682302
168 1 1 12.771478478419215 11.489487845474518 12.53500763067433
169 1 1 11.531170552580257 10.133843619753486 13.629827276091502
170 1 1 9.583295818218959 9.78792694526441 14.44015575630593
171 1 1 7.4613463483193625 9.901537525316146 14.395185267989662
172 1 1 5.3450006842005955 9.949502601087014 14.512996520281149
173 1 1 3.2526027768574703 9.810686283150746 14.77991330016318
174 1 1 1.193674941487847 9.507335359937736 15.10169859603033
175 1 1 29.176152712871474 9.03688040946677 15.437841861482129
176 1 1 27.223922195525073 8.36182442285294 15.767976537691133
177 1 1 25.382862434688747 7.430182889659001 16.071189704536003
178 1 1 23.734591083526823 6.185316174946214 16.320529005667606
179 1 1 22.425415077750063 4.581553298653341 16.478915987647557
180 1 1 21.69787828889527 2.641009237948313 16.499834571323188
181 1 1 21.85636537976855 0.5827397358050339 16.345011201697968
182 1 1 22.995920015947398 28.88383192758383 16.032961610324712
183 1 1 24.777207685191666 27.90518178298701 15.643766585827196
184 1 1 26.787830132674284 27.625534593023335 15.240243950048873
185 1 1 28.803450974226923 27.878570467885734 14.84512101638605
186 1 1 0.7324446220025458 28.520134786168207 14.463592228055665
187 1 1 2.542946586613235 29.449082145797888 14.096803005276449
188 1 1 4.228115046721495 0.5946514363626474 13.74328200111193
189 1 1 5.781776964279089 1.9215429132802548 13.423850960570556
190 1 1 7.29603406455096 3.3056845993746933 13.175276256458373
191 1 1 8.96872268739477 4.515116996377644 13.07850114890938
192 1 1 10.055075216924875 6.266200891292742 13.241013801738246
193 1 1 10.32055292550953 8.219129309780893 12.619740929290007
194 1 1 9.365662401022135 10.02396315892 12.254206950835963
195 1 1 10.233657670887252 11.833327164986457 12.870834691665872
196 1 1 11.55832131625122 12.420173542923674 14.366280419774306
197 1 1 13.477486869947652 12.887198616382772 14.989996252928856
198 1 1 15.372809786751382 12.605313884395324 15.768633009487697
199 1 1 15.617234910717558 12.652777977305995 13.713216490255382
