ITEM: TIMESTEP
110
ITEM: NUMBER OF ATOMS
200
ITEM: BOX BOUNDS pp pp pp
0 30.0
0 30.0
0 30.0
ITEM: ATOMS id mol type x y z
0 0 0 9.088150929463172 11.245322458731412 22.013348524255044
1 0 0 8.582257154375055 11.660157601277556 23.675872312591896
2 0 0 8.076466865994043 12.074927325183612 25.33809318154295
3 0 0 7.575894918328771 12.508670924766642 26.996328581550546
4 0 0 7.081163085452847 12.957079826216328 28.651719780391684
5 0 0 6.592239286185742 13.459543226164266 0.29226237150324613
6 0 0 6.105072521982375 13.970859984406394 1.9307272979510528
7 0 0 5.616907083423579 14.509571557469103 3.5618134824714422
8 0 0 5.093646714056227 15.166966883685365 5.140146592100388
9 0 0 4.571593182566412 15.796010153941861 6.731446922483766
10 0 0 4.046226587753858 16.41965137422778 8.325251417102924
11 0 0 3.565176242969963 16.990072137065514 9.954104296305326
12 0 0 3.113908166129851 17.60062921809825 11.577593197721688
13 0 0 2.6206890888196077 18.103082775395137 13.22694641504991
14 0 0 2.150443965457684 18.638215350125478 14.873580213319931
15 0 0 1.7077105429180488 19.23213479141339 16.507528949252222
16 0 0 1.3307700290696676 19.848687235738865 18.148171064885734
17 0 0 1.0233204465192127 20.57633102836504 19.757395858814117
18 0 0 0.6677795947634503 21.283998594692235 21.36632929410512
19 0 0 0.22644280331281227 21.97899301464971 22.959617915305927
20 0 0 29.759552257582545 22.756551319005794 24.508014195021318
21 0 0 29.34998499658308 23.677157029792856 25.995410784917816
22 0 0 28.9660773308942 24.67833689483031 27.4408575714555
23 0 0 28.39811688150876 25.41600605664751 28.98719144794175
24 0 0 27.730372565910223 26.676421572935876 0.10389263703436061
25 0 0 26.62145194711709 27.749802210908303 1.0398501904557436
26 0 0 25.47777394116878 28.69722069760595 2.0542817263887385
27 0 0 24.291171845630913 29.64314592650099 3.0130805509458924
28 0 0 23.13599338561914 0.7017721800348146 3.880734090568333
29 0 0 21.889964454027808 1.7272222413026694 4.656618393729924
30 0 0 20.601558802643012 2.677112439733494 5.4585100960527555
31 0 0 19.306798050426313 3.6275467140774382 6.248031341252435
32 0 0 18.01101954832187 4.586477588468341 7.025384061118364
33 0 0 16.733926308417864 5.549836666975306 7.824158068360685
34 0 0 15.408724826566448 6.439959501743709 8.630083653397776
35 0 0 14.094866016097443 7.303916909115274 9.485620151917137
36 0 0 12.800446956663942 8.22351631212241 10.313194655685741
37 0 0 11.558479964540357 9.275053499169875 11.060629710655878
38 0 0 10.256501442276429 10.3226449446576 11.706080331801045
39 0 0 8.730703419555914 11.269911020210925 11.686525131132356
40 0 0 7.542588037991416 11.643521739565502 12.97596704219931
41 0 0 7.543089666696871 11.778382961815787 14.766144400515085
42 0 0 8.692141037396206 11.780241837174547 16.148459526375813
43 0 0 10.340593159332247 11.171502047700942 16.540249127535272
44 0 0 12.094762316498334 10.770642783177513 16.42750222194501
45 0 0 13.807969168384545 10.409632526260106 16.005956961958635
46 0 0 15.575609544864081 10.137188859550637 15.797548220192867
47 0 0 17.084244991319288 11.112427386190687 15.68434848641095
48 0 0 18.28849011414343 12.446202788556345 15.77919603551681
49 0 0 19.58977272621526 13.657118960935158 16.05894808451669
50 0 0 20.02057315222698 15.351235977969528 15.635391619812848
51 0 0 19.819529052587946 16.48146782858054 14.251273500637176
52 0 0 19.61561318328371 16.584999909378855 12.468674283483526
53 0 0 19.429205411021226 16.22224314181259 10.720816038171742
54 0 0 19.151800957805804 16.254259548625942 8.947153295274015
55 0 0 18.97785234823806 16.62814039948168 7.198680217172829
56 0 0 19.070369355955524 17.15556928186753 5.484750608364638
57 0 0 19.259119289273446 17.58148925038938 3.749889030847841
58 0 0 19.42748335805521 17.527538645724235 1.9618106528565094
59 0 0 19.66664858733876 17.231831060359184 0.20653075708041946
60 0 0 19.92801079248247 16.776411719767793 28.489666806845353
61 0 0 20.31251620940799 16.295526998009816 26.80623820585153
62 0 0 20.75965929873198 15.925706995691458 25.111558753772094
63 0 0 21.168648032598963 15.711714312550296 23.37965603637662
64 0 0 21.47848707619231 15.667801844007455 21.616134180379735
65 0 0 21.158286317210734 16.00666628997129 19.888007067051813
66 0 0 20.39213373295557 17.037874624967507 18.641433931604613
67 0 0 19.897974569468232 18.68265811532266 18.129972153931867
68 0 0 19.349750885505916 20.387284198582734 18.16822498389772
69 0 0 18.88305485211624 22.107084333454388 18.349887424493964
70 0 0 18.579625570378344 23.857056451626953 18.587175282617103
71 0 0 18.37628944064527 25.62013318930383 18.834980762257935
72 0 0 18.222528801435395 27.386695471368046 19.090053560303918
73 0 0 18.11076309071446 29.155115440759975 19.357934563774773
74 0 0 18.026837464281705 0.9207134989334353 19.65326687829877
75 0 0 17.95923803377379 2.6786912835023435 19.98884287402823
76 0 0 17.919792117425267 4.426686701560365 20.372743502709355
77 0 0 17.937582668296834 6.167602496747069 20.789394861425052
78 0 0 18.018651132886397 7.906971109921938 21.203484147898003
79 0 0 18.1491753068561 9.650331823612033 21.592357181308778
80 0 0 18.33777647159277 11.39704834398335 21.94486208788738
81 0 0 18.61919704872886 13.144404693211218 22.227231969584604
82 0 0 19.033438546334644 14.877836483239664 22.029908033514086
83 0 0 19.34811722464556 16.60727471285382 21.674241271959847
84 0 0 20.430578867134304 17.874078948201618 21.01078665958446
85 0 0 21.65375520521251 18.508105422678053 19.863062633675334
86 0 0 22.36176610611884 18.50661200535308 18.216651264725176
87 0 0 22.615166896638662 18.240853547344443 16.464536058734627
88 0 0 22.845489413180534 17.951300346940904 14.713939699575581
89 0 0 23.308464695177616 17.679885618427768 13.006826268435505
90 0 0 23.87967110078497 17.442315778174038 11.328057285245729
91 0 0 24.51087391853214 17.2314819387369 9.668262313933976
92 0 0 25.182857924133597 17.04195666188097 8.022438230951458
93 0 0 25.893315262505308 16.867724595442656 6.390138897040106
94 0 0 26.64630283660344 16.700145077649005 4.776226348871843
95 0 0 27.448829688255625 16.530476305251163 3.1871438718788703
96 0 0 28.32860668684013 16.348509692661665 1.6409323603631927
97 0 0 29.208542745329495 16.16709400319814 0.09499686308194018
98 0 0 0.08634891331391648 15.986479178196847 28.548191524971667
99 0 0 0.9625047017788059 15.805729086914926 27.001182682168526
100 1 1 23.801880410905593 23.70434095831308 3.4711356786627485
101 1 1 24.684067839514345 24.64487455439484 1.847156981028761
102 1 1 25.540697217554168 25.563923557925445 0.20431751666912829
103 1 1 25.336462490073604 26.334447553489657 28.29334620039108
104 1 1 27.22470189906151 27.077479349292133 27.94035349805573
105 1 1 28.11393682937448 28.008012554588838 26.34061690647168
106 1 1 29.108742791882342 28.97117422708796 24.812131275140906
107 1 1 0.10746403508394929 29.929460307536228 23.28146714856523
108 1 1 1.0924536804570268 0.872210747760987 21.733503629372205
109 1 1 2.1689716637845677 1.8695543608386023 20.280891602818393
110 1 1 3.176573982795102 2.8041973631125265 18.741153139451345
111 1 1 4.281481100146898 3.926382970391051 17.397428676178812
112 1 1 5.464479463763368 4.971632597064828 16.037485740571313
113 1 1 6.393384079273561 5.631063744135159 14.278682673380919
114 1 1 6.995555455011708 7.219643513625144 13.034788681425956
115 1 1 7.730713634137228 7.540516133249846 11.088142213084648
116 1 1 8.592170356128115 9.268937726002884 10.257712213757967
117 1 1 9.584702985785066 10.658729719297758 9.054175146991133
118 1 1 10.730411773642928 12.016688923032694 10.137087139695698
119 1 1 10.712855197394253 12.736683398678894 12.087046667797713
120 1 1 11.630193816694513 14.322073304848045 13.076295088359148
121 1 1 12.7229817332183 15.427537213972803 14.45701866152807
122 1 1 13.96939311468991 16.555982144846432 15.685149122058949
123 1 1 15.12480613057671 16.96691863842347 17.370992285909065
124 1 1 16.135734549125598 15.741517171236723 18.726638372727948
125 1 1 17.94225824464276 15.530596727541338 19.748746346439823
126 1 1 19.486464589025825 14.154702591277067 19.645557825889426
127 1 1 17.939297329332273 12.793175213577454 19.845552502264407
128 1 1 16.29519033707141 13.852269587904155 20.539752998738294
129 1 1 15.94778321096471 15.79625680011071 21.20608938544089
130 1 1 16.42132146111732 17.648818527876408 20.374858586451573
131 1 1 17.62444853774413 17.766237639405947 18.67978768598572
132 1 1 18.16081528273372 16.181326203996864 17.435213661412302
133 1 1 17.72706083764919 14.147852254754367 17.68099640762131
134 1 1 16.108868539459262 12.850610295206307 17.980633677346006
135 1 1 14.0883782129406 12.363471400652916 17.721837829453925
136 1 1 12.56894554304336 13.512049719789783 16.877142340955885
137 1 1 11.0088911352057 14.47014229387275 15.890492989588944
138 1 1 9.618933794234426 14.245082188166625 14.363263626381578
139 1 1 8.491338712452174 13.896923325491967 12.664061549873098
140 1 1 8.715734748724671 13.636436389457728 10.624478557803577
141 1 1 9.54938310215982 13.758615318061024 8.72790457478098
142 1 1 10.443096325812112 13.856155308955497 6.857673924504731
143 1 1 10.979293094652014 14.090508938386249 4.867137630086172
144 1 1 11.423116239401903 14.218036586423194 2.8506508866888502
145 1 1 11.766716607711787 14.272214539005615 0.8192809048345912
146 1 1 12.0635156381766 14.318463350849274 28.77986204577372
147 1 1 12.398380282566231 14.33262172492214 26.743856914524656
148 1 1 12.764458445839981 14.337278270979644 24.712070595541654
149 1 1 13.285394223073247 14.355523042156678 22.70939180969969
150 1 1 13.773360431610419 14.453227680396632 20.69644383463596
151 1 1 13.95060276467439 14.796610716878694 18.65380147739713
152 1 1 15.04088680503369 14.528919321023384 16.888742549050743
153 1 1 16.640584183714484 14.633500841570141 15.555537157069239
154 1 1 18.2214264588823 14.543652707990528 14.203202053406097
155 1 1 20.102071270038476 14.332308051491557 13.327476063577818
156 1 1 22.1387442856049 14.693876800940421 13.125603869225026
157 1 1 24.1965468813698 14.800551555326274 12.940099912811215
158 1 1 26.255271978540744 14.85988708100675 12.789175770838183
159 1 1 28.315246410050285 14.969982916195887 12.630329240972692
160 1 1 0.36844881277803254 15.109922043069124 12.425765320591305
161 1 1 2.420110338924465 15.249191044176873 12.232227702359951
162 1 1 4.474625366305603 15.414760596637567 12.028066555293057
163 1 1 6.51755751627063 15.679255468620962 11.794155926303329
164 1 1 8.519003548661876 16.060862008512835 11.41269714511045
165 1 1 10.468580182369918 15.388671587105325 11.185116997715706
166 1 1 12.193257909484283 14.343479665814291 10.677591662261214
167 1 1 13.096113853007578 12.545889830531525 11.202258781000094
168 1 1 12.552940948638525 11.079912099770395 12.56634600385955
169 1 1 11.801328913398372 9.746654046164359 13.966500290409456
170 1 1 10.337497497627728 9.024817115390302 15.24806074122063
171 1 1 8.404079491450942 9.230148039024085 15.956793046217783
172 1 1 6.515403622676632 9.289607452347129 15.119454514486787
173 1 1 4.460127360428918 9.314253065563996 14.860706008380705
174 1 1 2.397520653824202 9.154760593608408 14.983067473328841
175 1 1 0.36929385071989485 8.780760832357636 15.245888414274841
176 1 1 28.388288322502902 8.205889521754468 15.55123599133121
177 1 1 26.48985547640366 7.404016832548018 15.854828508075915
178 1 1 24.739892165945673 6.316904356621811 16.127274916728258
179 1 1 23.260226271776638 4.8810053653372165 16.332013950305875
180 1 1 22.271639789217648 3.0692264985275033 16.41715924654196
181 1 1 22.113718179219813 1.0132651960437593 16.324763481714005
182 1 1 23.026220199081028 29.18083425134979 16.045244616395713
183 1 1 24.72387975715588 28.065337454679234 15.661601937943502
184 1 1 26.7193087044699 27.70245436298299 15.255420087988757
185 1 1 28.737850676925646 27.9094684062888 14.857565310606885
186 1 1 0.6717992456009039 28.523048160916563 14.47491583225309
187 1 1 2.4858621489096704 29.433019269513085 14.101321392314006
188 1 1 4.162272004453895 0.5823809989188475 13.733803087561746
189 1 1 5.722994604969054 1.9080715177085477 13.46186902991589
190 1 1 7.317726827541064 3.191726521296288 13.185324875991888
191 1 1 8.970457191105615 4.432116545472365 13.08758925311162
192 1 1 10.22604933715839 6.041531289362755 13.421006702830939
193 1 1 10.133985575477555 8.015343357397112 12.812826219501465
194 1 1 8.717797829384288 9.413346662115783 13.404342970653838
195 1 1 9.719749121569834 11.125536646191831 13.992126726828037
196 1 1 11.327926618564815 12.310217876113494 14.555601219813225
197 1 1 13.294267666513255 12.906890930724146 14.405988533035845
198 1 1 15.055399203315066 12.507139728472145 15.407641565759887
199 1 1 15.771509270761971 12.814429858579059 13.492441144185891
