ITEM: TIMESTEP
113
ITEM: NUMBER OF ATOMS
200
ITEM: BOX BOUNDS pp pp pp
0 30.0
0 30.0
0 30.0
ITEM: ATOMS id mol type x y z
0 0 0 8.806110005007932 11.385902872969767 22.617964301128332
1 0 0 8.36560029335712 11.81468136387388 24.298593852435697
2 0 0 7.924815016668227 12.24355677401006 25.979827543384456
3 0 0 7.46857139577536 12.674374092439853 27.65770789222204
4 0 0 6.982282652985676 13.139011687174236 29.321864343328993
5 0 0 6.462947834989583 13.68011610926835 0.9574518415315294
6 0 0 5.932456051211461 14.271000017613789 2.576862843774526
7 0 0 5.364953585789209 14.942891905674934 4.154560118400573
8 0 0 4.80890369019764 15.571688492553156 5.754933728710178
9 0 0 4.25965127723748 16.20725025149607 7.354128883734127
10 0 0 3.7899888712702405 16.810347073125232 8.989022087578935
11 0 0 3.3228023856049833 17.396836183179186 10.627708956660278
12 0 0 2.8416058008816862 17.957432718281858 12.267456239608958
13 0 0 2.3499683397657845 18.541663682898363 13.892697323136323
14 0 0 1.8829455090969835 19.175149075811383 15.505686144113884
15 0 0 1.4929913081429418 19.835175591207218 17.12652784358918
16 0 0 1.1814521059286907 20.565396233054578 18.73361936278261
17 0 0 0.7938626322268099 21.231105296580466 20.35323431052486
18 0 0 0.4147358456174607 21.968750806076486 21.943161541692916
19 0 0 0.05465518834888202 22.851666890610783 23.460069008253758
20 0 0 29.696858063286204 23.808056179878555 24.930416508841514
21 0 0 29.211637188060067 24.568160455030835 26.47516504592833
22 0 0 28.76902115456057 25.00687726903466 28.151168671338272
23 0 0 28.725505259098608 25.798311024436007 29.754354990527876
24 0 0 27.764094129916103 26.80491666691073 0.879743026718877
25 0 0 26.569702158759164 28.09898303357722 1.2119674485546006
26 0 0 25.246261479141218 29.20122024231983 1.7017138831118104
27 0 0 24.10552365762996 0.24511513709224 2.6013710490412123
28 0 0 22.876517298168334 1.0941373010621989 3.586330478431625
29 0 0 21.657346273541876 1.9730003158549543 4.559161291125202
30 0 0 20.41139887359225 2.95101693741446 5.39395919915971
31 0 0 19.09174120175972 3.8293192000157443 6.227704562117287
32 0 0 17.74902914818685 4.673517916234935 7.05985497361746
33 0 0 16.39515373708092 5.45051383367428 7.94161441478725
34 0 0 15.06827764627037 6.315123302584769 8.784758511523945
35 0 0 13.783281400549608 7.206362614076697 9.660010633800468
36 0 0 12.489141776931142 8.151497848682626 10.458321312467259
37 0 0 11.121899649893562 9.095086310137539 11.125380512518596
38 0 0 9.772299421243764 10.126448902057875 11.69337062676696
39 0 0 8.302031194134072 10.97915534066814 12.26553790817501
40 0 0 7.154139971814454 11.478794174712096 13.54922265184385
41 0 0 7.231063975803683 11.499594394687277 15.33771263444753
42 0 0 8.589295782015498 11.514142832606069 16.500987048685882
43 0 0 10.280949290174924 10.997866018806805 16.741385218843817
44 0 0 12.041841873013366 10.708958823888475 16.796645485647115
45 0 0 13.75599105475785 10.290566196030527 16.521219706770417
46 0 0 15.525036652092936 10.201727536674753 16.742093707881345
47 0 0 17.066573756329973 10.99265487204719 16.317861380405123
48 0 0 18.35467433620696 12.21777353981882 16.46524215834791
49 0 0 19.425368429054473 13.645156045681098 16.437827965044423
50 0 0 20.296532895543706 15.118184771112528 15.930360162425515
51 0 0 20.16248434985173 16.346602972679932 14.641148675309914
52 0 0 20.044239852584948 16.459176042900005 12.86335480417606
53 0 0 20.019888333134034 15.964929004223912 11.146492122988413
54 0 0 19.92585461651675 15.343236793211354 9.472153171644969
55 0 0 19.59062644965002 15.279224957715991 7.714668872101859
56 0 0 19.343127798452972 15.760149120989038 6.005522414775635
57 0 0 19.42133320364501 16.571022498003465 4.407190502777033
58 0 0 19.67039365941748 17.337201924192737 2.803869955808225
59 0 0 19.897543714539655 17.56273634635414 1.039144633848713
60 0 0 20.169474058350048 17.368992056389672 29.277140942815336
61 0 0 20.442491724834746 16.931816142073295 27.559241807050384
62 0 0 20.67487505547692 16.431949705798875 25.85141046955452
63 0 0 20.987087010855124 16.11978903516133 24.112804454568
64 0 0 21.341350257590427 15.883735414571518 22.371202215696226
65 0 0 21.053343160058535 16.031308622969316 20.606593353990522
66 0 0 20.438137357555103 17.10759730948391 19.309220201115508
67 0 0 20.189510122299453 18.75286624920174 18.63258288274493
68 0 0 19.688638779774248 20.4607481688137 18.403595623727107
69 0 0 19.170186348202304 22.179119584880088 18.438680433905965
70 0 0 18.734574962361087 23.910538354504826 18.639846726786626
71 0 0 18.460440186114045 25.666412949537087 18.90075831726972
72 0 0 18.289522358802827 27.436497780130143 19.167640014796294
73 0 0 18.174861181970368 29.209394857199136 19.44926741217544
74 0 0 18.0851848217092 0.9790913399449243 19.747683012274322
75 0 0 18.046325135052122 2.7395341065907517 20.095890263434075
76 0 0 18.0627616740834 4.492371626643658 20.483697906435687
77 0 0 18.111650273739304 6.244888985155685 20.872961157173453
78 0 0 18.20458937499427 7.996804386957525 21.248677189878382
79 0 0 18.36039002928607 9.750994163998838 21.596988715548786
80 0 0 18.6448864783388 11.502228618682713 21.87457499296665
81 0 0 19.030490358408596 13.248419488805169 22.056108826823493
82 0 0 19.138786372968024 15.039555416779358 21.9969203542188
83 0 0 19.302951435680804 16.81197788837261 21.746021099830184
84 0 0 20.489335491998016 18.114752737031893 21.400900614617708
85 0 0 21.892476211665976 18.561134987842248 20.378460353570606
86 0 0 22.545422873923272 18.49518955935022 18.711771710533778
87 0 0 22.796453139349428 18.33980661072282 16.94419270084543
88 0 0 23.084562541984894 18.110471703515802 15.189486673476557
89 0 0 23.341424965332152 17.821046047663728 13.438171619622127
90 0 0 23.832140622714387 17.54356324150975 11.734837392912796
91 0 0 24.433427421547776 17.304107712960136 10.06098500782423
92 0 0 25.093068351708578 17.09160237178883 8.406602912547111
93 0 0 25.794429219933143 16.898480827497863 6.767823915458108
94 0 0 26.536464055015813 16.71822861886796 5.14636144110142
95 0 0 27.359203189739546 16.546155557891424 3.5643148692086837
96 0 0 28.18598376001998 16.37562096192696 1.985657035469023
97 0 0 29.03241860189625 16.20174397479775 0.4201180295760291
98 0 0 29.880249534206587 16.02825808296493 28.855787683142175
99 0 0 0.7273677447966437 15.853304870297295 27.291424334789223
100 1 1 24.099342762918173 24.030744760506217 3.0113105743585677
101 1 1 24.958323008541278 24.917423408856656 1.3788425767494759
102 1 1 25.56171164289539 25.74762055480102 29.61077411778023
103 1 1 24.870953764241964 26.390258416491417 27.787004240823286
104 1 1 26.826902633448924 27.06479986148187 27.989174772304004
105 1 1 28.008173329716104 27.917687791918063 26.48862701851132
106 1 1 29.023251020973426 28.883927716408532 24.886556456269567
107 1 1 0.06338393580466119 29.890254994735056 23.25458678355521
108 1 1 1.15768118751473 0.9294905630437673 21.658602331793166
109 1 1 2.21633381174996 1.9246643181509249 20.041279431747444
110 1 1 3.3620668002448215 3.031390375130886 18.654702562931384
111 1 1 4.515983263595516 4.053240299335448 17.22933026253
112 1 1 5.6654589980734835 5.069467369099333 15.792545556325269
113 1 1 6.640639471251024 5.969152222891273 14.148648103342694
114 1 1 7.096312224582345 7.417467789323747 12.695262613016459
115 1 1 7.580974549071684 7.57640279171498 10.664098850344347
116 1 1 8.238378168294075 9.358076040749388 9.8010174681133
117 1 1 9.206133256330164 10.878033944253843 8.748393463275836
118 1 1 10.398167564285997 12.097593129976923 9.925211671210723
119 1 1 10.419217086071582 12.585831819771125 11.94568504226106
120 1 1 11.541820726003134 14.050213390722286 12.924853349204927
121 1 1 12.729236833121023 15.102028832280029 14.316538306627663
122 1 1 13.94007133520323 16.297470011653413 15.588248687910685
123 1 1 15.424415077700475 16.824819143427042 17.00464050602322
124 1 1 16.1313537851612 16.180112423964623 18.870648397998636
125 1 1 17.813970645864522 15.495254383883845 19.91507179004554
126 1 1 19.278391089004266 14.062815892428409 19.677376581239827
127 1 1 17.564947647855433 12.94906037921398 20.052863074026387
128 1 1 16.219260308133926 14.147359745026861 21.09377916679824
129 1 1 16.0566256427745 16.180569490182904 21.505610016301084
130 1 1 17.031426864353175 17.773980197140915 20.579872293505368
131 1 1 18.05641722897502 17.682375761202593 18.76462457656739
132 1 1 18.295414916012327 15.991007761338146 17.561234519916972
133 1 1 17.185330967387436 14.221741412549203 17.796867747855693
134 1 1 15.76726351448809 12.730724530675166 18.207257219048323
135 1 1 13.820673885796397 12.693363798943537 17.399523170575144
136 1 1 12.374854035806536 14.010891203830367 16.62487948297606
137 1 1 10.483050077488947 14.272782806971737 15.7636228483004
138 1 1 8.876874829991044 14.097522200429566 14.444066226479197
139 1 1 8.148458419759868 13.930700614346874 12.502967386314129
140 1 1 8.385894334567235 13.550715478318496 10.47359189409549
141 1 1 9.008443450436129 13.704887128633006 8.494227606806835
142 1 1 10.126220793054975 13.65231865320933 6.7365350550542145
143 1 1 10.70316737627532 13.982400019269809 4.762667697811286
144 1 1 11.153433207439116 14.248674362327455 2.7438547133406064
145 1 1 11.51110250068521 14.367288028189986 0.6891205949718584
146 1 1 11.92696826039466 14.435665332688595 28.649203948325667
147 1 1 12.395779025648716 14.42840899335227 26.626444689059316
148 1 1 12.948100508484881 14.397543406333005 24.631390209972036
149 1 1 13.623675326617184 14.410977085424761 22.67619912551591
150 1 1 13.766087101092626 14.623678862694856 20.618270027960463
151 1 1 13.97763228599741 14.84483679881716 18.56962663470049
152 1 1 15.06749044788008 14.499835088350851 16.828274788351465
153 1 1 16.5302965988396 14.520621994634492 15.376788976526411
154 1 1 18.290634730452545 14.360334983940117 14.327993594621422
155 1 1 20.165935549471932 14.037380534232424 13.534489603577727
156 1 1 22.083323571263204 14.731088976961034 13.177847194635262
157 1 1 24.131067569156613 14.968319427770535 12.935993556150695
158 1 1 26.204959291971207 15.052208861696679 12.714618754642547
159 1 1 28.285226345156733 15.09390316334239 12.509222828469886
160 1 1 0.362704522825722 15.156362463053336 12.330188356467085
161 1 1 2.436682930861027 15.24694440905486 12.127320618073176
162 1 1 4.503485339015002 15.402124605106374 11.926031717706483
163 1 1 6.549477288432993 15.679914030097516 11.673307523677325
164 1 1 8.549729133554091 16.08920010163262 11.2897935939346
165 1 1 10.330585804568246 15.1475717526552 10.782967712128299
166 1 1 11.918135685035766 13.867420708853668 10.361617557628081
167 1 1 12.785065431657758 12.133223046316136 11.114688279948458
168 1 1 12.259850387554213 10.883346309470939 12.688307099957658
169 1 1 11.832898303544217 9.558977630147766 14.229310990267711
170 1 1 10.695554258613097 8.405514984043052 15.525880269169448
171 1 1 8.985845911820466 8.843130362642475 16.614705434269993
172 1 1 7.061692491977465 8.901417569046556 15.84978255767677
173 1 1 5.170280127579478 8.972561058726697 15.01583276002561
174 1 1 3.1072483763019667 8.90480732253962 14.951158186205202
175 1 1 1.0773603394644597 8.601700517876491 15.142440246231955
176 1 1 29.09430390113969 8.087887697911775 15.422844415988713
177 1 1 27.177460239615034 7.360650836794045 15.721735770482372
178 1 1 25.387869983427308 6.371548840688577 16.002183781980996
179 1 1 23.82567345430744 5.050652807427596 16.230211746013797
180 1 1 22.68701303673986 3.341998060281215 16.354131293260007
181 1 1 22.3145309912564 1.3208971429092893 16.306776472874684
182 1 1 23.03893105973405 29.408094727010965 16.056755392011727
183 1 1 24.65987296772375 28.17995716104142 15.679673776760424
184 1 1 26.64725473324563 27.743505409647973 15.270702946961837
185 1 1 28.680002510526833 27.91352861027039 14.869042680516053
186 1 1 0.6323844324230419 28.51236353305129 14.482780802296077
187 1 1 2.460395926575741 29.418965197325008 14.095942492802301
188 1 1 4.118642665009371 0.6058083185231458 13.733430701894578
189 1 1 5.727667616098541 1.87414336106562 13.46588226557776
190 1 1 7.3489909441430825 3.1332172951306068 13.207073384944932
191 1 1 8.964212971641127 4.426563359866119 13.092148168797355
192 1 1 10.312322474976462 5.948943228656505 13.484438436153718
193 1 1 9.906553201544767 7.911877973949114 12.981203886387393
194 1 1 8.615587916585177 9.124467523728649 14.03910959415973
195 1 1 9.673044523098364 10.877349998925839 14.250815380919077
196 1 1 11.224081939925957 12.14352133139176 14.715036172003206
197 1 1 13.209927080966619 12.535040836895828 14.24194813577477
198 1 1 15.063759539812683 12.52923457892271 15.131446627809813
199 1 1 15.87861541450571 12.904199887024543 13.27391730392532
