ITEM: TIMESTEP
114
ITEM: NUMBER OF ATOMS
200
ITEM: BOX BOUNDS pp pp pp
0 30.0
0 30.0
0 30.0
ITEM: ATOMS id mol type x y z
0 0 0 8.69249724328989 11.456290231208595 22.92518659892965
1 0 0 8.264089036189946 11.891139377534067 24.609539685711063
2 0 0 7.834675884546982 12.326936213373802 26.297578300277923
3 0 0 7.3947230510531075 12.769207945933852 27.983504702651643
4 0 0 6.909800930799199 13.255082353025868 29.644244230784647
5 0 0 6.388429662126122 13.805510392095526 1.2702179781460181
6 0 0 5.833488598685306 14.441737799858803 2.8502244230640272
7 0 0 5.252771534795839 15.095225980665031 4.411455678237945
8 0 0 4.712265014203444 15.711134165551702 6.001965280358371
9 0 0 4.190588639605465 16.325533350622376 7.599637384846534
10 0 0 3.7279404827857667 16.95293658547893 9.209626205284362
11 0 0 3.22934929728669 17.4882333798683 10.843145547706683
12 0 0 2.7393658943503727 18.08541960275068 12.459736597215773
13 0 0 2.261175158112418 18.678180217347375 14.080608292932187
14 0 0 1.8549595076969034 19.374682770834873 15.679055030422052
15 0 0 1.488405752900759 20.057436548189138 17.29226159104102
16 0 0 1.1190466329666438 20.74549101049365 18.90357977688396
17 0 0 0.7038432518387606 21.45616261990727 20.49673868204712
18 0 0 0.32179449539102073 22.20962704293379 22.081166979353547
19 0 0 0.019684835421290698 23.168620599583875 23.569550962290464
20 0 0 29.674477163715416 24.13646423766224 25.04151430762934
21 0 0 29.15072894832261 24.76620017600105 26.63523463120808
22 0 0 28.788542539597245 25.095952178994487 28.357518079488614
23 0 0 28.780145643381736 25.993363960786244 29.908111418574645
24 0 0 27.61502281439266 26.843092626754505 0.9695366285968852
25 0 0 26.540401385397228 28.21211818629552 1.3892756119167953
26 0 0 25.186440871091538 29.352660909211657 1.6637761460630531
27 0 0 23.999193486886888 0.43173566882468467 2.4647645951722104
28 0 0 22.78099398384017 1.27504684410154 3.4763019763404586
29 0 0 21.543313047153852 2.065020835216998 4.5065320843291605
30 0 0 20.313997502070418 3.017651164355323 5.3932159981733365
31 0 0 19.00141464251566 3.895195602650181 6.227624856561471
32 0 0 17.650666361112318 4.680076938527428 7.0821254244043095
33 0 0 16.311262437099664 5.4255278153516056 7.981318821471046
34 0 0 14.989227031894742 6.26385336933386 8.821992040973539
35 0 0 13.73601230869789 7.174863594960236 9.69342673748997
36 0 0 12.411715099694145 8.119427708231319 10.413683897676105
37 0 0 10.995612256560957 8.96971461245218 11.084182014529505
38 0 0 9.651866165976115 10.049424920320945 11.558714183308645
39 0 0 8.204034778835434 10.746892381260935 12.356756873111621
40 0 0 7.174057861165217 11.359041684118646 13.694283153575302
41 0 0 7.177232959361584 11.421381895364398 15.484636301868399
42 0 0 8.553187409957056 11.388193864636017 16.628800140307717
43 0 0 10.290548132724437 11.09350052295676 16.933582134068136
44 0 0 12.028495115035886 10.667792177063193 16.87778126308096
45 0 0 13.735311695226152 10.158173316372219 16.685339978350168
46 0 0 15.494664251158197 10.246168512750565 17.01853295569101
47 0 0 17.068347562479985 10.977039161127575 16.559649899250438
48 0 0 18.400056771392535 12.173509092719172 16.697455272787973
49 0 0 19.380044172731477 13.670549833506131 16.5496793037709
50 0 0 20.391488323053807 15.069859543951729 16.06600540387871
51 0 0 20.270133900091764 16.252102211774822 14.72534438672037
52 0 0 20.20507049563033 16.372060587596813 12.93927863447373
53 0 0 20.178328256843745 15.876029141627383 11.217798670315688
54 0 0 20.14698537054616 15.140184898024494 9.584466900501479
55 0 0 19.822476286689415 14.928442095708686 7.836469440367649
56 0 0 19.51106005072149 15.406607240730638 6.140903094010492
57 0 0 19.513396218696116 16.186790504423186 4.532750373418237
58 0 0 19.74476349056251 17.125657940310028 3.0294450198010487
59 0 0 19.98700644625105 17.562370001281234 1.3133510812265412
60 0 0 20.26169319896983 17.484921669479164 29.54809603667446
61 0 0 20.489105409748355 17.128506295052336 27.809010426169717
62 0 0 20.645145398381242 16.69032960562723 26.078153542944563
63 0 0 20.959954718542555 16.28589331440664 24.35868317206215
64 0 0 21.294112742326497 16.035472877230855 22.6121096405783
65 0 0 21.173900536692678 16.081933426202102 20.820794153070533
66 0 0 20.514897230797615 17.15001797372269 19.537680091556865
67 0 0 20.348301100067722 18.81989242317931 18.89097056593083
68 0 0 19.800114165479155 20.496270396336257 18.551944952602344
69 0 0 19.290578183318804 22.21748196371485 18.514884987512545
70 0 0 18.831290208853616 23.94634411811973 18.66809303942258
71 0 0 18.515863748658298 25.694832206774876 18.92011425919857
72 0 0 18.329326535539987 27.45935336064737 19.195680589828385
73 0 0 18.205321542134783 29.227140433579816 19.486872154586226
74 0 0 18.112783542758443 0.9952478429734347 19.797886657067323
75 0 0 18.086093936197333 2.7579948566095958 20.151389464102703
76 0 0 18.12669865624081 4.516224100386363 20.521592384567285
77 0 0 18.18349561806792 6.274760699275297 20.891947356591114
78 0 0 18.284019043917915 8.032455361492985 21.255468419473534
79 0 0 18.467040475058237 9.790391691367764 21.582896776774398
80 0 0 18.797564531992123 11.538262163605696 21.819798850884595
81 0 0 19.11653529760379 13.291042513843955 22.03781315868347
82 0 0 19.17414957569549 15.08527071396738 21.997238072794232
83 0 0 19.242715691174514 16.87422684601198 21.85732983928674
84 0 0 20.486944437628164 18.126895057381027 21.53912602597424
85 0 0 21.928827435932924 18.54610649498746 20.55534005795347
86 0 0 22.595102254744464 18.452109432569696 18.892293837704983
87 0 0 22.856009179955088 18.350908155370327 17.121660968912174
88 0 0 23.168636087426908 18.146552665597948 15.367823134607985
89 0 0 23.40463378348983 17.88263004260717 13.609485590618808
90 0 0 23.831360926347447 17.5893623007132 11.893984423349668
91 0 0 24.408996647969467 17.33783463792095 10.219003745811712
92 0 0 25.057421530862708 17.117452046316583 8.566915395042503
93 0 0 25.753369795949457 16.915893041903853 6.930773703257808
94 0 0 26.49618448277298 16.726201817159314 5.313657341861381
95 0 0 27.305772380505438 16.55698178187742 3.7271796722163066
96 0 0 28.122850310311637 16.38766435181956 2.144544079486036
97 0 0 28.95373846770393 16.215987792550347 0.5698018579405361
98 0 0 29.78781213150318 16.045831279772518 28.9965120218893
99 0 0 0.6248863038185731 15.875250796902419 27.425566817377952
100 1 1 24.17085438861668 24.108970334276844 2.917591189094501
101 1 1 25.045209844547436 24.99309152056767 1.2607813083656918
102 1 1 25.558002768808894 25.786762333854266 29.418449225853585
103 1 1 24.84421026188821 26.467900930105067 27.599777232990895
104 1 1 26.788562774672965 27.21648882622789 27.661444406728332
105 1 1 28.118169731452337 28.06270347727476 26.276694997997854
106 1 1 29.130869159485304 28.99533215318045 24.69222182268146
107 1 1 0.13841161793559978 29.950641395966002 23.14860487741397
108 1 1 1.1780424391706168 0.9317904177306217 21.66756237922149
109 1 1 2.1600699208117713 1.888679910982694 20.099452485698748
110 1 1 3.3623933041765683 3.051976508523274 18.794975255153602
111 1 1 4.5116557930081145 3.983430281307633 17.26952969078362
112 1 1 5.5931595414233035 4.978412841330714 15.743814454071336
113 1 1 6.583566359567164 6.115702596446388 14.277754949474547
114 1 1 7.100418260465785 7.287253671881628 12.634373340452605
115 1 1 7.519009009223338 7.648700110808029 10.636506241164325
116 1 1 8.119158491241588 9.349034401301665 9.647403048916114
117 1 1 9.039337406382247 10.896383915458282 8.656973605962694
118 1 1 10.200856239393532 12.038126658574221 9.929389999591884
119 1 1 10.393797948598772 12.630774518981726 11.915715357965695
120 1 1 11.572950295041698 14.005251857278894 12.9669735934093
121 1 1 12.809784090769961 15.107939635808659 14.250548318937723
122 1 1 13.912495949258968 16.346904536016613 15.512578677397812
123 1 1 15.386728784170987 16.795318167395656 16.923816327035606
124 1 1 16.07834378924598 16.31696533438717 18.839254525015182
125 1 1 17.690355606551776 15.476329711208304 19.865530986313626
126 1 1 19.16098408311568 14.034161791415537 19.69238744841184
127 1 1 17.417383926712997 13.038367442653355 20.18811886384373
128 1 1 16.214813677842635 14.248089903650934 21.367820042503265
129 1 1 16.074270131463862 16.315149462240893 21.60157046519429
130 1 1 17.241598732682057 17.700925195586404 20.57110292209511
131 1 1 18.23183349537259 17.609579257855245 18.740833667246697
132 1 1 18.257407726874685 15.898570050504606 17.552465141065937
133 1 1 17.054151026058577 14.221312482047416 17.8719220392238
134 1 1 15.585447762924558 12.757909379169973 18.18929907914783
135 1 1 13.669121076868668 12.640108430961897 17.35314265077009
136 1 1 12.299857913143997 13.974264078919932 16.53543213714212
137 1 1 10.360192346091415 14.163940351207781 15.79032011349078
138 1 1 8.740547645763625 14.059007267642228 14.47704071090352
139 1 1 8.105758425559738 13.925634844028334 12.492797693287102
140 1 1 8.288225718095003 13.55170924926839 10.442013803056675
141 1 1 8.855347914132329 13.672883835313694 8.432148540255032
142 1 1 9.997215732974364 13.607489393486263 6.681934626797816
143 1 1 10.608514581058929 13.944591677542029 4.7095132864835785
144 1 1 11.060749236692347 14.25091348151783 2.6866303357270676
145 1 1 11.433646941861277 14.395812295646495 0.6420210220266375
146 1 1 11.881754831356341 14.468134537668389 28.614096575447547
147 1 1 12.396035258922272 14.459040226194421 26.601010188344624
148 1 1 13.017013268606714 14.420557227571555 24.621446249975335
149 1 1 13.71285918369306 14.436872894084326 22.661456161325788
150 1 1 13.653368071373505 14.707242517137571 20.59378607805768
151 1 1 14.056576537350525 14.946873969309246 18.563121974950345
152 1 1 15.058102940318928 14.54972165097188 16.771459075449343
153 1 1 16.506607517128952 14.535552240149816 15.273360122253253
154 1 1 18.347497979536016 14.289210672460005 14.341855742475872
155 1 1 20.25231942212525 13.967385276293971 13.597080555600737
156 1 1 22.131300964207355 14.726387406544307 13.190306713543162
157 1 1 24.15820165248469 15.013868077099964 12.930259257301131
158 1 1 26.20469609989174 15.1122016618193 12.691677527098902
159 1 1 28.26242353881664 15.141265922151337 12.473136497492368
160 1 1 0.33370953768152567 15.170286555899196 12.295459364672693
161 1 1 2.4083179086974833 15.250975201992308 12.098587132836581
162 1 1 4.480539325913026 15.403023955131207 11.892509188896188
163 1 1 6.530219663941044 15.689825155841337 11.624807419482858
164 1 1 8.552305786760138 16.042329087504143 11.24336850187635
165 1 1 10.277420879410672 15.046742013844442 10.648591573550489
166 1 1 11.9239610952297 13.825534046047471 10.32122137196364
167 1 1 12.619615700440947 12.03461662214905 11.110960569265096
168 1 1 12.141181253180488 10.763162929911667 12.679171307450437
169 1 1 11.828422588271392 9.506741563901574 14.298313714805449
170 1 1 10.816742552062594 8.251448403529063 15.601645323876859
171 1 1 9.171654939689883 8.69260515942443 16.784152871319638
172 1 1 7.171462172709988 8.759788021033136 16.22262093629678
173 1 1 5.4348264528099435 8.861019400660663 15.07382398147717
174 1 1 3.361211920572839 8.827119873210114 14.936848173736417
175 1 1 1.3137847089432642 8.547242498903408 15.105992416392409
176 1 1 29.324604089434423 8.052870255181594 15.379860337001334
177 1 1 27.40872949573116 7.355413508104381 15.676893102522552
178 1 1 25.600442663452124 6.400836914067514 15.961439729053765
179 1 1 23.996152508122794 5.109490927398802 16.199817092005883
180 1 1 22.803766260087308 3.4222308768185257 16.33677970637147
181 1 1 22.37271374983199 1.398861615581711 16.30105281860916
182 1 1 23.063335108327106 29.462901458922342 16.055594839962065
183 1 1 24.66680032006083 28.22163821238209 15.680386591118245
184 1 1 26.635621855283336 27.77252071993929 15.273753764004217
185 1 1 28.657439916928773 27.927247090215822 14.873627710104255
186 1 1 0.6052436719138923 28.512749107186302 14.487294570522842
187 1 1 2.432170603451198 29.410205561796737 14.09635919799548
188 1 1 4.091260377589322 0.6110592702543293 13.739501240755047
189 1 1 5.732910129316543 1.855219158193587 13.463478835820332
190 1 1 7.358034626098413 3.115287852738212 13.219158267403317
191 1 1 8.953391635373775 4.422514433158043 13.096563155344052
192 1 1 10.34003604351293 5.899538565886213 13.504996305608044
193 1 1 9.867315543426876 7.849215504773378 13.006575295557068
194 1 1 8.610570660478214 9.026632367408006 14.151257716449583
195 1 1 9.647671593498755 10.812021413719103 14.34184555914758
196 1 1 11.245636386256695 12.044072841617362 14.772003330385697
197 1 1 13.199304896530588 12.42347340477807 14.218416057388781
198 1 1 15.083684981014153 12.492242739539789 15.049157970412326
199 1 1 15.910779783357336 12.933088807023477 13.20347457563032
