ITEM: TIMESTEP
116
ITEM: NUMBER OF ATOMS
200
ITEM: BOX BOUNDS pp pp pp
0 30.0
0 30.0
0 30.0
ITEM: ATOMS id mol type x y z
0 0 0 8.470213662679486 11.59149380389316 23.549548137560333
1 0 0 8.062142920765298 12.04194213058172 25.23046294258627
2 0 0 7.6545281539920795 12.491921436385264 26.909668740249884
3 0 0 7.253729162734167 12.939744338115359 28.591674737904217
4 0 0 6.783362570254334 13.476022976383472 0.2326463261515189
5 0 0 6.272862460688176 14.045734176428237 1.8526659091052768
6 0 0 5.605759372476297 14.776222298603802 3.3458927963879037
7 0 0 5.053683047620909 15.374938788854967 4.937657267053881
8 0 0 4.512737679410699 15.997658124633327 6.517576459918162
9 0 0 4.067928238879523 16.613993615256263 8.123880193214255
10 0 0 3.548061112040643 17.175817390365676 9.723925608773003
11 0 0 3.0274933387864107 17.756115224495296 11.314962819266679
12 0 0 2.5291900583742692 18.33128480604353 12.913767072814457
13 0 0 2.0911633498865805 19.016378617843973 14.485499694954619
14 0 0 1.8084373528833302 19.75166861063114 16.073286771586663
15 0 0 1.4589760253726125 20.496351076059938 17.648471320641374
16 0 0 0.9569272810969097 21.11403072908723 19.24041868435077
17 0 0 0.5651886501594927 21.912737937184513 20.781830523572705
18 0 0 0.17772538499944815 22.74100809260796 22.309707460987035
19 0 0 29.91616590949259 23.764801791796554 23.74399324479987
20 0 0 29.599144748860713 24.68103376325673 25.241887546891835
21 0 0 29.09196473272308 25.051361398038075 26.91585832626964
22 0 0 28.89806802349448 25.35084865365237 28.670360907251204
23 0 0 28.766732068437395 26.343296600694188 0.15643687390550515
24 0 0 27.350952634526696 26.973031916913794 1.0620060805382523
25 0 0 26.441429849818267 28.374085588987175 1.727418155036776
26 0 0 25.155276673833914 29.633348190493617 1.6313410204372418
27 0 0 23.831479515009153 0.7460179594702693 2.1467768063592034
28 0 0 22.639344402752364 1.5571358659362533 3.227797207243729
29 0 0 21.406320713916514 2.2507790272764345 4.338611934570515
30 0 0 20.178496846415033 3.087302152458573 5.344203603021682
31 0 0 18.881198254353713 3.9803464606561927 6.1957191907304106
32 0 0 17.51341142990527 4.661255997169135 7.126869673444976
33 0 0 16.144505215176277 5.37938180472502 8.024653540344376
34 0 0 14.833961214424225 6.178867187712279 8.941360815842557
35 0 0 13.579721964707712 7.1445689029269435 9.776018886793967
36 0 0 12.174107036666168 8.063415919925228 10.389955980782617
37 0 0 10.715213000610182 8.957181635173304 10.912356761607649
38 0 0 9.258781460556136 9.849631430801134 11.441576435675055
39 0 0 7.843078915181197 10.356922005364556 12.407053395911147
40 0 0 7.260505786481055 11.055390920764154 13.945933894415901
41 0 0 7.192437329147526 11.264998951893636 15.72156041437271
42 0 0 8.603499048905645 11.105997000552492 16.811031003367447
43 0 0 10.334623495303589 11.25911941728072 17.24581048095749
44 0 0 11.967761371414804 10.55549006201488 17.00773240633268
45 0 0 13.671215849636166 9.9954801649299 17.109230647547708
46 0 0 15.392171179395243 10.403924454254689 17.42326544454366
47 0 0 17.060937383877537 11.006705042945047 17.14603486475255
48 0 0 18.438873966095745 12.151994874111603 17.101505826371916
49 0 0 19.343823591062073 13.658939256499318 16.761193303788936
50 0 0 20.42762275827559 14.976022045685017 16.225890526450243
51 0 0 20.491714230579092 16.06270746822592 14.804424989907972
52 0 0 20.375673257014633 16.377155728161846 13.041881332559099
53 0 0 20.493833695944858 15.63477631893459 11.410464289456451
54 0 0 20.515519732575246 14.858699227189462 9.791237692364257
55 0 0 20.265431886288003 14.360030377681102 8.086443592348402
56 0 0 19.893382888973743 14.77628199354772 6.383659888356948
57 0 0 19.75756279315142 15.539960679740972 4.769775080094462
58 0 0 19.894229938383994 16.613846057356668 3.3422269686697406
59 0 0 20.179362591857558 17.42965360000392 1.772470156366673
60 0 0 20.42985282719292 17.61353976490789 0.006973791840054259
61 0 0 20.535243434634342 17.449209148777488 28.224131986051038
62 0 0 20.69893018204466 17.16142670389598 26.45972160981273
63 0 0 20.948079762454153 16.69589630068904 24.743249815983233
64 0 0 21.36197180743807 16.32431150572891 23.03471857067084
65 0 0 21.41603365464737 16.31328007217459 21.23720952963475
66 0 0 20.783823300152967 17.172518361484098 19.789410122088086
67 0 0 20.328875458811183 18.872892174394 19.423190814165967
68 0 0 20.033323088136648 20.592285669906644 18.99485319427293
69 0 0 19.539759036150404 22.30567845938759 18.767332456299904
70 0 0 19.08655756958032 24.045007892940088 18.780542571448315
71 0 0 18.690886938621947 25.786165984344645 18.967902460799138
72 0 0 18.440709259745482 27.539149797044185 19.25935846420927
73 0 0 18.28048688902419 29.293301394182134 19.583177649703117
74 0 0 18.200316615698878 1.0488972646298005 19.927523228336643
75 0 0 18.202409449851398 2.8068367015673337 20.266610281681302
76 0 0 18.263096498227107 4.564682663827262 20.597518531044123
77 0 0 18.34995618868361 6.3219386946125 20.923392025747876
78 0 0 18.487113750753846 8.075646650836566 21.23891578855823
79 0 0 18.769379726246786 9.825107122667703 21.48750448178599
80 0 0 19.038947767967457 11.575905871116147 21.750176959032196
81 0 0 19.139618562945067 13.324629484650329 22.13399522707512
82 0 0 19.180291872812777 15.109883076399587 21.970024656663124
83 0 0 19.430589658323548 16.881398550257135 22.09928657368032
84 0 0 20.52861080072448 18.277338827161724 21.847954402620932
85 0 0 22.088560123286847 18.564927959545003 21.01003229348288
86 0 0 22.77113376599366 18.39916519895359 19.358874198071106
87 0 0 23.019109184591827 18.311934588467036 17.585665600175787
88 0 0 23.25030243985276 18.200783022062442 15.812557728665604
89 0 0 23.578825860996336 18.00109417600207 14.060471027342698
90 0 0 23.850553721703857 17.712942405830965 12.308911879271761
91 0 0 24.34931574688903 17.426141531264875 10.607851797947475
92 0 0 24.971967205870452 17.17991476208508 8.94193268506597
93 0 0 25.660123204386508 16.95397359537293 7.298507912586333
94 0 0 26.410752590118022 16.756831418660685 5.679868901604594
95 0 0 27.182754850400528 16.57538495623805 4.071815605169182
96 0 0 27.988020489028063 16.410881458251755 2.4803747487659056
97 0 0 28.792242996576487 16.247263540401036 0.8910972341954067
98 0 0 29.597199001556106 16.084396070728292 29.304520545229916
99 0 0 0.3953137976496671 15.92133481856386 27.715556936170618
100 1 1 24.352810908522102 24.30014263869773 2.6643742450714414
101 1 1 25.19088612805492 25.14001296306093 0.9936341127219147
102 1 1 25.502401098487642 25.842644945018204 29.10458177456085
103 1 1 24.831208619660853 26.588211787470588 27.318771668813227
104 1 1 26.65746547364138 27.51609550941833 26.967713135050385
105 1 1 28.30102007614815 28.296500550938603 25.978763038674494
106 1 1 29.285455435304403 29.15464351040732 24.40402851033757
107 1 1 0.3084936084894542 0.07915715990160972 22.923864524102864
108 1 1 1.3370296693935033 1.0464731558224483 21.483816544871253
109 1 1 2.263891295768157 2.0347792015390667 20.001859166596375
110 1 1 3.4922440987072325 3.150326639082525 18.852026540100184
111 1 1 4.519336935209759 3.908622338405325 17.28104963025611
112 1 1 5.404218929554252 4.847736074984658 15.715279943640615
113 1 1 6.293772189454638 6.2778275522939175 14.557642350654358
114 1 1 7.017600490923235 6.8450948640498055 12.669838457249845
115 1 1 7.364990919995868 7.782666246236183 10.800135230694206
116 1 1 7.880862509210618 9.280893013450509 9.404569862162125
117 1 1 8.76679033310119 10.970217965999694 8.562764111670312
118 1 1 9.819193383355177 11.852880054353264 10.112459496023583
119 1 1 10.228887774576485 12.862584606124134 11.886561265874478
120 1 1 11.632479032266207 13.856777777913084 13.08470602948598
121 1 1 12.936241027781994 15.147390967422549 14.106939013934676
122 1 1 13.897750996635493 16.53043540571219 15.352124783428717
123 1 1 15.216003858549232 17.10119306658587 16.864314650800203
124 1 1 16.1108432696055 16.62672563896735 18.683879522139005
125 1 1 17.374450837382366 15.44257653545346 19.846116184226698
126 1 1 18.81824502084666 13.947009045105714 19.722900661013636
127 1 1 17.093052065512683 13.17303048171257 20.577971934419068
128 1 1 16.19356907328831 14.48674725215587 21.915336201548573
129 1 1 16.24928619810767 16.552011925615414 21.67187508621204
130 1 1 17.555520253368165 17.72061838926438 20.527345302857395
131 1 1 18.478107629766637 17.38653777759536 18.68156334430754
132 1 1 18.077814146090805 15.71750716751636 17.494392467576144
133 1 1 17.007188645845158 13.980910357657674 17.943046944232528
134 1 1 15.320263937248985 12.780346411432681 18.18723611735834
135 1 1 13.434039622245466 12.536022717372774 17.364613000339162
136 1 1 12.101877145211766 13.779267303555052 16.370842940901074
137 1 1 10.128330794602276 13.92910488583789 15.772366539413852
138 1 1 8.568571997968021 13.979983235904282 14.412561672515306
139 1 1 8.114093643965349 13.778433726557937 12.39710316894611
140 1 1 8.01734296081861 13.62200175491278 10.337517336506957
141 1 1 8.67990504943324 13.57119888673944 8.386512248119816
142 1 1 9.625823501612684 13.60634249915092 6.549068112725871
143 1 1 10.376292044016349 13.863468480042869 4.627495143477454
144 1 1 10.853658612810943 14.216699068414288 2.6224665834049903
145 1 1 11.295503735397505 14.437497370911759 0.5810396168222187
146 1 1 11.805468032856194 14.516065038978878 28.54768945888207
147 1 1 12.422945738312603 14.511473962927187 26.54838907195539
148 1 1 13.161642822862833 14.483222849245948 24.58201597887092
149 1 1 13.735269996161467 14.539977075101737 22.556087035898802
150 1 1 13.577347761422836 14.858845746386608 20.487033359089086
151 1 1 14.201190798129478 14.906572350160449 18.481335095441544
152 1 1 14.804802250231003 14.53846145077398 16.500648327879574
153 1 1 16.46831155417822 14.568618762763633 15.235403711012378
154 1 1 18.3543431254808 14.167879897396134 14.431916290734495
155 1 1 20.311768926163214 13.869084897778238 13.757337635150966
156 1 1 22.170375830153628 14.665517892234401 13.236537078131182
157 1 1 24.18702755690864 15.099238278471939 12.920682008126471
158 1 1 26.248132332662692 15.226488297653153 12.639773117523125
159 1 1 28.31339505807847 15.23433841243416 12.404770137412124
160 1 1 0.3744494748140806 15.208705380405148 12.210536563268562
161 1 1 2.4254906254525195 15.271761018658681 12.036197726978763
162 1 1 4.467250097658591 15.430789366846618 11.815035996921145
163 1 1 6.482232042149818 15.722180948076238 11.503075559191899
164 1 1 8.499210235755848 15.877636134841445 11.08935258768544
165 1 1 10.227870553462346 14.914803867900014 10.450673411258588
166 1 1 11.947819689740633 13.74865811237857 10.309190650202979
167 1 1 12.38860790777879 11.865280683105562 11.083674742687714
168 1 1 11.9208652846777 10.514624175637278 12.598651313357944
169 1 1 11.773800312649708 9.425635659043564 14.368149389901397
170 1 1 11.021713256664986 8.056790220204846 15.738841958999359
171 1 1 9.407788764477976 8.381688635455985 16.994575780381446
172 1 1 7.346654710754303 8.487077219627889 16.865741288813485
173 1 1 5.956876498273161 8.628894788999311 15.33849624246719
174 1 1 3.9167618440574596 8.657198442537682 14.942781033183879
175 1 1 1.8474998718644053 8.440281143991037 15.035268196278164
176 1 1 29.826180011742036 7.993434061247584 15.289206910866666
177 1 1 27.86096916555781 7.3405934919249765 15.588980905855504
178 1 1 25.99883384635266 6.436823422751834 15.884076952597646
179 1 1 24.33636375243877 5.207951757652891 16.1380646153895
180 1 1 23.056162438941136 3.5755173220640404 16.297708181995514
181 1 1 22.507547822313576 1.576603646532279 16.287274979445982
182 1 1 23.085015111486197 29.610484010155357 16.060679672021895
183 1 1 24.643572211292717 28.302625465211605 15.689004912978415
184 1 1 26.616813775462422 27.813214082108747 15.278559165585751
185 1 1 28.64389714879786 27.952208791326264 14.876872174404157
186 1 1 0.5944414674147095 28.530550970427743 14.486654952248863
187 1 1 2.415533222687869 29.429308270812413 14.08434699250455
188 1 1 4.058615594843845 0.6339440666758988 13.756278876009334
189 1 1 5.725117546000836 1.8080237254844365 13.462148359556657
190 1 1 7.347249974744015 3.0612251528416103 13.250031524086813
191 1 1 8.911118629889971 4.399536930098247 13.115342056107135
192 1 1 10.380820314797559 5.786118872894215 13.53746972464012
193 1 1 9.790936126165665 7.713158503200028 13.064358604350216
194 1 1 8.62524468348486 8.863341928219228 14.338179646720063
195 1 1 9.614000494936814 10.659943930624259 14.546756279865027
196 1 1 11.284191722505568 11.844108531656287 14.876272712630335
197 1 1 13.187126439494406 12.256879221337192 14.201021262613917
198 1 1 15.136195804863844 12.374507416542082 14.876002719152131
199 1 1 15.959001026684627 12.983169910047225 13.092043075816061
