ITEM: TIMESTEP
123
ITEM: NUMBER OF ATOMS
200
ITEM: BOX BOUNDS pp pp pp
0 30.0
0 30.0
0 30.0
ITEM: ATOMS id mol type x y z
0 0 0 7.816520898041063 11.920285767698664 25.360668100657897
1 0 0 7.488838069756432 12.447006820521697 27.035929024823197
2 0 0 7.161307009155717 12.973390099407663 28.710237029283135
3 0 0 6.820701779597148 13.512314428270908 0.3784811389566891
4 0 0 6.421003397714286 14.107464577923263 2.0144813103287835
5 0 0 5.653561316202952 14.91363441648006 3.41600932170889
6 0 0 5.2431748312367965 15.49419932652092 5.064566242150949
7 0 0 4.519717251778967 16.328190743652282 6.48223527114073
8 0 0 3.9813597348354715 16.924597912256164 8.086367086246456
9 0 0 3.4608013140144553 17.475747057583604 9.708340127817772
10 0 0 2.851300301194582 17.96995833666017 11.312776438910612
11 0 0 2.3181584628341563 18.528809240256944 12.920837241042882
12 0 0 1.9052644911677734 19.311467557662155 14.472999365312829
13 0 0 1.7002934384614934 20.215840962683547 16.003081474535623
14 0 0 1.3435402380077759 20.96392147399606 17.58957183796555
15 0 0 0.9526713895331155 21.772425994319363 19.141615999808394
16 0 0 0.7020048843640914 22.79997058596812 20.592110860185436
17 0 0 29.921597135521132 23.475204094056558 22.06217959680966
18 0 0 29.717862687560004 24.823844800825242 23.233240987476975
19 0 0 29.425283200242678 25.710052803624645 24.771214315272964
20 0 0 29.082171015487642 26.59446894952738 26.295112051962626
21 0 0 29.20708868940277 26.346344163797795 28.06002405313923
22 0 0 29.085829283017404 26.452207672409298 29.8367577540899
23 0 0 28.376377245999603 27.315482776960586 1.230294833177469
24 0 0 26.74661504690277 27.91885270551266 1.6410066939465215
25 0 0 25.59617211096368 29.163338836685476 2.196203592181701
26 0 0 24.611785600229705 0.6461616408378356 2.121991146473311
27 0 0 23.25270451433576 1.7521945617411747 1.8094691422544642
28 0 0 21.947748006069354 2.570904592926406 2.7098601492454986
29 0 0 20.661735582919892 3.0967507510223986 3.8384926669945143
30 0 0 19.396537977829745 3.5684045240304227 5.022590113670549
31 0 0 18.159626670261027 4.100078268162312 6.210830837630057
32 0 0 16.981582166973705 4.665522850791474 7.440002842738202
33 0 0 15.630214707867879 5.47319622592663 8.298815285143418
34 0 0 14.221831136094357 6.27291525578353 9.07042876311058
35 0 0 12.693109913253965 7.064070188901842 9.574864716772025
36 0 0 11.223159647105936 7.839846594760824 10.248384444232062
37 0 0 9.962367223610487 8.582184534215962 11.285162886792921
38 0 0 8.803662130341175 9.473579180337637 12.323586858662214
39 0 0 7.665604739047981 10.498298664929804 13.254070739227506
40 0 0 7.102770258788979 10.516583294404489 14.9536616906438
41 0 0 7.609236806303984 11.289475842341158 16.48618674102562
42 0 0 9.064605966539562 10.90617275178002 17.456127318210516
43 0 0 10.669561853156885 10.16343396096975 17.7449605030492
44 0 0 12.400233003072557 10.35745618588385 18.15427121751
45 0 0 14.110212559626202 9.849411125865574 18.060847047669274
46 0 0 15.890631313482446 9.93477519718971 17.99382609524621
47 0 0 17.58484209270327 10.37000110418321 17.646699254475184
48 0 0 18.74617422820739 11.697671366174285 17.375574964189354
49 0 0 19.62167449630783 13.218051512790467 17.04153216439894
50 0 0 20.526866123567824 14.657764620112252 16.496054325140378
51 0 0 20.27673277313405 16.052807249597567 15.407603030641148
52 0 0 21.00148536976411 16.302677588941965 13.79052428092694
53 0 0 20.813849413155584 15.617567786457213 12.144958283045291
54 0 0 21.010527741718438 14.67321784073999 10.635158332303497
55 0 0 21.397416474315587 14.1347775136018 8.97243780675323
56 0 0 21.409078367575272 13.848685694247298 7.208858173065485
57 0 0 21.25264194295872 14.192652409857036 5.465804733801095
58 0 0 20.99231050395521 14.929646061264021 3.8617148145377493
59 0 0 20.715830612406336 15.670177029964327 2.25830187090337
60 0 0 20.72148460535638 16.801323323912673 0.871172864299264
61 0 0 20.953371553842125 17.66148112125231 29.317106259939244
62 0 0 21.370499837130495 17.998848510486525 27.60515967273193
63 0 0 21.85283059330314 17.73513844384422 25.896074580520896
64 0 0 22.09470720173629 17.28196779727952 24.17589387195884
65 0 0 22.040327755671502 16.951952500558182 22.412765878791653
66 0 0 21.165585086308532 17.354465266299187 20.903567583181047
67 0 0 20.498410470295223 18.946198741515527 20.44249026009588
68 0 0 20.242744783551206 20.712466646184783 20.439300912776027
69 0 0 20.079646629208717 22.48720433789644 20.437431609502383
70 0 0 20.062841206404777 24.244440768496286 20.126725288674418
71 0 0 19.734949910567863 25.96784720823551 19.79126451485064
72 0 0 19.334379641987976 27.71116097208903 19.756954441877866
73 0 0 19.01914595460147 29.46449883107222 19.943232413866827
74 0 0 18.843990530946783 1.224718073900915 20.24502985996475
75 0 0 18.808297275095665 2.9946069074939876 20.544143501607845
76 0 0 18.975044091551116 4.769616845109159 20.754470916518244
77 0 0 19.318140982253148 6.524445141513487 20.913667276182103
78 0 0 19.428082004862347 8.297615162805855 21.163742901018214
79 0 0 19.31626980245734 10.050530222784849 21.52734268127009
80 0 0 19.44883797950944 11.821594430544149 21.772253278042093
81 0 0 19.552488041736957 13.586612096431796 22.062312689250568
82 0 0 19.624301447630724 15.302272873970667 22.57224351580227
83 0 0 19.732795664880854 16.96246052241409 23.240794515180408
84 0 0 20.28626649854024 18.63563625481357 22.922254902125864
85 0 0 21.882261199002592 19.324221487482333 22.492765234464578
86 0 0 22.959793354300622 19.235213925018424 21.064667614581754
87 0 0 23.42000514248716 18.58443345401563 19.461455289766995
88 0 0 23.74683593587869 18.23599115970706 17.737601547469993
89 0 0 24.041695062188218 18.071903694927073 15.982501093088667
90 0 0 24.156202471193282 18.025569017951273 14.199652431096215
91 0 0 24.486018868969214 17.861756913064493 12.452604468104273
92 0 0 24.766425282326303 17.55801305528788 10.717171471241416
93 0 0 25.289305657622553 17.22163764390613 9.044184362245106
94 0 0 25.92897843861518 16.964919581471023 7.396719096258812
95 0 0 26.60693662867011 16.760698796525944 5.756455679746897
96 0 0 27.292245630880664 16.571210036242743 4.116427360224112
97 0 0 27.985641135791123 16.40568568032302 2.4763233026505183
98 0 0 28.673708937325266 16.246960071635268 0.8337838899923603
99 0 0 29.360475535647858 16.091085799762638 29.190686090345874
100 1 1 24.988289718810254 24.928094416904504 1.9013436457833588
101 1 1 25.671459895822004 25.611606547790256 0.04337802263200325
102 1 1 25.29034410531438 26.08803476350869 28.020395218709563
103 1 1 24.714085650242932 27.054100153982024 26.258609289162244
104 1 1 26.14469252803028 28.171470546836808 25.232639447527838
105 1 1 28.167145585714454 28.68443767510718 25.337668709372412
106 1 1 29.705472842537553 29.42789104652013 24.09387703720144
107 1 1 0.7736385581181765 0.32632728735638 22.476695653998195
108 1 1 1.3920060378034673 1.240525531960601 20.64776613890647
109 1 1 2.8907247453978844 2.6069326238759714 19.970812253512378
110 1 1 4.089505064577227 3.6959478389726264 18.578909104811572
111 1 1 5.0903427191954895 4.109640103242086 16.805715278280825
112 1 1 5.280077743776697 4.788182674020731 14.863732677399943
113 1 1 5.996039805912995 6.163306417900093 13.502358614825281
114 1 1 6.76216314926038 6.126070351114404 11.61316903409517
115 1 1 6.710913141357081 8.211942566359435 11.666877350473419
116 1 1 7.100869011797079 8.617395300704189 9.652769391823247
117 1 1 7.870723444547813 10.560305780432538 9.782839352890445
118 1 1 8.76921073757247 11.632943105033936 11.307192296024587
119 1 1 10.212340544111898 12.755800179356854 12.231229721824588
120 1 1 11.601407724785375 13.930914990519769 13.162811942143675
121 1 1 12.890393921186366 15.35462610440951 13.867695379915805
122 1 1 13.904867921386431 16.903718063528203 14.790309704470596
123 1 1 14.265161741091019 17.660814994787614 16.69854265285036
124 1 1 15.643396411513462 16.922807732996368 18.086170287894568
125 1 1 16.217107245254898 15.344381327250412 19.331158646986594
126 1 1 16.61317040005652 13.643672572605148 20.456235941717487
127 1 1 16.210665301860598 13.83542363485846 22.477616467261782
128 1 1 16.662224215257428 15.837908947453162 22.76758839436015
129 1 1 17.44917696842047 17.621725247699697 22.043246829156768
130 1 1 18.31155023657837 17.745276722188922 20.16061208164021
131 1 1 18.737365046086772 16.176790543287215 18.863560447453974
132 1 1 17.703050101752698 15.118373423257264 17.39977020959611
133 1 1 16.73307999159312 13.298579479446897 17.70117730438488
134 1 1 14.913253383821933 12.348746164072 18.03303505208002
135 1 1 13.024535304906852 12.881804478064522 17.34683155994781
136 1 1 11.174260429168616 13.342989707847348 16.51007035332584
137 1 1 9.564545123413957 13.195754518660879 15.187329709643349
138 1 1 8.223250157539008 13.550151683251913 13.6308998916384
139 1 1 7.172464153985588 13.415227581727121 11.83566589291746
140 1 1 7.262948790676466 13.308992537939739 9.745395088721724
141 1 1 8.163854274521427 13.422667473121543 7.871309394536724
142 1 1 8.563689573089778 13.730412765336983 5.847508746587754
143 1 1 9.190350168575769 13.878912737883708 3.858766090101805
144 1 1 10.164906621998595 13.968908234599152 2.0289829031671855
145 1 1 10.997330152054781 14.275831736200946 0.1545503238718116
146 1 1 11.85255800775077 14.517877302385784 28.287879815170886
147 1 1 12.64213920888408 14.687549763870969 26.39409892191083
148 1 1 13.03656281533845 14.906454588547627 24.383897861417626
149 1 1 13.153885892426246 15.15226467151236 22.344211639138457
150 1 1 13.87708127035585 15.047634543015697 20.421376288510217
151 1 1 13.785296708152458 14.925231940818616 18.36617464894828
152 1 1 14.94073816403109 14.685948389676248 16.660100233478023
153 1 1 16.440135313738644 14.305221766654823 15.27235190823228
154 1 1 18.421980593917393 14.020184256268255 14.721119915082314
155 1 1 20.3978354987168 13.909054240003062 14.123573286775576
156 1 1 22.39314965299631 14.20926812262677 13.689549390204252
157 1 1 24.240137386884978 14.852496290909288 13.025345985274367
158 1 1 26.17913511354266 15.368046974030445 12.554682040312205
159 1 1 28.21137399548679 15.439781597369748 12.269715818865858
160 1 1 0.26046612131946023 15.478988817546849 12.021980085985735
161 1 1 2.3220642678693784 15.474463264997603 11.751924303902321
162 1 1 4.369326924227783 15.646149464989488 11.428080677976832
163 1 1 6.3739550053822365 15.877906864504995 10.93309946981317
164 1 1 8.407846189457288 15.568582330017538 10.623687512983004
165 1 1 10.232819883006545 14.734490872179075 10.077698919663476
166 1 1 11.659268979503365 13.232296355828948 10.2827915027662
167 1 1 12.100699293700034 11.294553646768378 10.903313053140842
168 1 1 11.71482516685867 9.990337851867066 12.483368986816613
169 1 1 11.68227556550024 8.510005062603648 13.95185847620884
170 1 1 11.442940685087859 8.076542404097838 15.974338200114225
171 1 1 9.950108481066154 7.346654742939641 17.226560610159893
172 1 1 8.221023003705689 7.627789708583778 18.335041657365075
173 1 1 6.898603764623051 8.650920860452294 17.118501502797937
174 1 1 5.63220915026344 8.229754927524667 15.53118016268218
175 1 1 3.6626316572334785 7.909127883076452 14.938221199093547
176 1 1 1.5934559608727785 7.64226274864544 15.006674393653118
177 1 1 29.57501003770329 7.167745406180446 15.261315502405811
178 1 1 27.634914553642993 6.475665325623568 15.567823019654359
179 1 1 25.828709867420212 5.507099057991504 15.86064308752679
180 1 1 24.277873595885197 4.165799316955251 16.09456535003774
181 1 1 23.25088256911969 2.3796138213303712 16.1967065968107
182 1 1 23.278295502095123 0.31866711546772786 16.068330874459424
183 1 1 24.556466894421106 28.723274551208167 15.727983077349396
184 1 1 26.469663313838982 28.01997374552879 15.31549681185701
185 1 1 28.500863207056103 28.042731563419952 14.908923659926371
186 1 1 0.4535153807219179 28.55579053744779 14.485087635044506
187 1 1 2.2463232818475216 29.495665263175756 14.087678668498231
188 1 1 3.9892158148750676 0.5512575701851904 13.768812532956945
189 1 1 5.679827940532134 1.705849501623676 13.500350439315124
190 1 1 7.322854614653496 2.953888247723068 13.304362698185997
191 1 1 8.859669879839757 4.343494558371354 13.223564426852919
192 1 1 10.596109618146865 5.394448899964747 13.622055466340317
193 1 1 9.504551059256853 7.136255739875161 13.410701642565833
194 1 1 8.669606736756892 8.2549432762112 14.929634682128844
195 1 1 9.539068259523424 10.11414769190722 15.225781832227863
196 1 1 11.311214402604683 11.096030072576186 14.777046203138438
197 1 1 13.283945807689257 11.550270818251711 14.327324503637353
198 1 1 15.31485809431237 11.981993230801889 14.25415800824013
199 1 1 16.098788449362026 13.14339071633081 12.726302978557882
