ITEM: TIMESTEP
124
ITEM: NUMBER OF ATOMS
200
ITEM: BOX BOUNDS pp pp pp
0 30.0
0 30.0
0 30.0
ITEM: ATOMS id mol type x y z
0 0 0 7.729518133198433 11.960082265405628 25.641372624145244
1 0 0 7.403447810260626 12.5085291549743 27.309294009900377
2 0 0 7.077796213234339 13.056510686447357 28.975786959884367
3 0 0 6.763075181612268 13.606270780470428 0.6429760329909268
4 0 0 6.323754774176388 14.223332118017728 2.2572184667771356
5 0 0 5.586182197534863 15.015653282265403 3.6746086201560857
6 0 0 5.166373148700449 15.628080787124857 5.296356722153053
7 0 0 4.497897146009241 16.438801387310573 6.738345236094294
8 0 0 3.88334716180925 17.048981423587797 8.299971772239672
9 0 0 3.3717734167735385 17.583768526039268 9.923958591980018
10 0 0 2.7404138440378656 18.07913433547997 11.519618064752832
11 0 0 2.2194843178687282 18.655088903053905 13.135126998608808
12 0 0 1.8646861187468553 19.468928759325568 14.699593851972308
13 0 0 1.623998971511043 20.38669399572307 16.23126306389008
14 0 0 1.2752547911422238 21.12524541979421 17.833373609041672
15 0 0 0.8530407477123332 21.97356333236292 19.352439715681832
16 0 0 0.6477377325518363 23.023028947888655 20.77988435954838
17 0 0 29.88120965903594 23.750389632536624 22.214756423834128
18 0 0 29.642847166301202 25.084521209965114 23.370245691449565
19 0 0 29.35571081898564 25.960892956531545 24.89182292683458
20 0 0 29.03922553294233 26.745025384018312 26.457553899152927
21 0 0 29.246269779603374 26.579683001546478 28.220372874002962
22 0 0 29.11112574563536 26.607042551727883 0.0014895404064816375
23 0 0 28.32154719061659 27.416959823029156 1.390655344064821
24 0 0 26.688155342474403 28.067218414949163 1.7580403636086308
25 0 0 25.46737569178293 29.299958691901697 2.2283608769398047
26 0 0 24.46403660977371 0.7883440034235811 2.1948775029413117
27 0 0 23.139684310548372 1.9399545234646332 1.8396131509442133
28 0 0 21.789744480982797 2.7540303480918467 2.6846872957958814
29 0 0 20.502373911249915 3.1991425466402292 3.8406669471064503
30 0 0 19.230201876292266 3.6466197663027384 5.012334047232878
31 0 0 18.03407672562393 4.192692044397723 6.223740744921679
32 0 0 16.863983509080253 4.7162549737842845 7.473787582962233
33 0 0 15.497362285837054 5.480291448845867 8.345230206140888
34 0 0 14.057237671726648 6.317763403346279 9.009429819659124
35 0 0 12.540834969378796 7.110696869063716 9.552129396317543
36 0 0 11.089817799709232 7.804821423731919 10.348938240491085
37 0 0 9.810756028255879 8.424367300630575 11.438137274378171
38 0 0 8.600012185345573 9.292697439846833 12.424772198959522
39 0 0 7.485686944213354 10.385277346130529 13.293791014783174
40 0 0 7.100679641571074 10.74132921185319 15.005501790392806
41 0 0 7.869642068728957 11.250287596810626 16.543502952241816
42 0 0 9.209005751659177 10.951470931311915 17.697236908021953
43 0 0 10.739334913592074 10.044156665088268 17.893309345236922
44 0 0 12.47536604113667 10.339994082835384 18.203429175696023
45 0 0 14.140171587968688 9.695094545462153 18.104808282956128
46 0 0 15.889449142563828 10.07040309314674 18.122648855513233
47 0 0 17.57609759105767 10.31326424007533 17.568360970160626
48 0 0 18.745068406677454 11.655299866591527 17.341622192761083
49 0 0 19.694701980284265 13.167355774798327 17.149923746377173
50 0 0 20.588267386390754 14.647991510862912 16.670874204409305
51 0 0 20.254763201211276 15.974290209487027 15.514453880474447
52 0 0 21.04094084816857 16.300573326379933 13.9408218275976
53 0 0 20.934472982869625 15.624881194540478 12.287907998836884
54 0 0 21.03766800771227 14.74537987247184 10.734448958730265
55 0 0 21.46543625751799 14.218625527221716 9.07995229447032
56 0 0 21.613631265422228 13.88286195234706 7.3300532826565235
57 0 0 21.49732057627903 14.074666707197524 5.555196448671555
58 0 0 21.18651453813605 14.72508675762432 3.9160183889477747
59 0 0 20.815873204407307 15.445456390732003 2.3180044073133073
60 0 0 20.79691702989988 16.552923630696935 0.9099197296657934
61 0 0 21.04383094525236 17.555585296929 29.44808966271992
62 0 0 21.524944369100766 18.017109349631713 27.791489343030957
63 0 0 21.966764914069795 17.769525855034715 26.08307352109761
64 0 0 22.14235437836767 17.43520310420732 24.342059436412423
65 0 0 22.150582279763604 17.032080393707133 22.603438666583443
66 0 0 21.20632555664898 17.397205424733457 21.1305810933755
67 0 0 20.580787777179143 18.957970869514757 20.51615066675842
68 0 0 20.309079199013528 20.72728035403588 20.60876320179294
69 0 0 20.11310855795387 22.51025808545415 20.633940140839886
70 0 0 20.14530121671406 24.289051740260142 20.386759204244377
71 0 0 19.892532636626942 26.01978073254229 19.988945192417763
72 0 0 19.49576774530277 27.765309793405827 19.877728619648753
73 0 0 19.17075393857095 29.522506058965874 20.014675708394424
74 0 0 18.975642015549884 1.280545631294099 20.28225939337425
75 0 0 18.93068943273064 3.044846380497725 20.558323295620042
76 0 0 19.154151094837406 4.807455242518993 20.746430533532394
77 0 0 19.423952437215082 6.564343096765613 20.93347518444464
78 0 0 19.477979715635446 8.329150410156434 21.205286469836736
79 0 0 19.437248540001097 10.08943910959735 21.50425504822188
80 0 0 19.514788051012587 11.85402824812866 21.77502364395896
81 0 0 19.610818866624136 13.612190751771623 22.09160797488252
82 0 0 19.663818737105196 15.30751277478342 22.662880514521344
83 0 0 19.81170156550447 16.92901651383448 23.40788538587445
84 0 0 20.259857768779906 18.61855440464031 23.026808091950553
85 0 0 21.815165012127242 19.434650045623464 22.69158038422267
86 0 0 22.952547506270893 19.40877195128068 21.315205088909057
87 0 0 23.43472088426524 18.701367221205388 19.748351645481225
88 0 0 23.813103516953444 18.30278606914848 18.04973342414232
89 0 0 24.107758687650634 18.067083086368214 16.305684052328527
90 0 0 24.19129991414198 18.032192889565824 14.521421788355564
91 0 0 24.510154533967675 17.895292215020707 12.766328104050631
92 0 0 24.773530441610518 17.638043471036745 11.013473649206135
93 0 0 25.23193365949089 17.27958845026018 9.31960448574635
94 0 0 25.850993494319173 16.999187060919834 7.665502917857656
95 0 0 26.51471414135413 16.796180749436104 6.019366322960763
96 0 0 27.184640297717703 16.60424802598649 4.375145178878827
97 0 0 27.85437074482244 16.437406529603983 2.728480103981292
98 0 0 28.525291040261237 16.27140923007023 1.0821869294812683
99 0 0 29.196663575805303 16.107360671649122 29.43453942861913
100 1 1 25.115398630622078 25.048723046800603 1.7146697552390335
101 1 1 25.67918741310309 25.672774473552572 29.853441388236995
102 1 1 25.250848465587957 26.151745064315044 27.909785138554742
103 1 1 24.778546586426497 27.111587761829586 26.153213438634182
104 1 1 26.121993303535895 28.23873578759498 25.043470288877472
105 1 1 28.145871022570354 28.779324850973474 25.125877510871813
106 1 1 29.769035362996537 29.50803697819176 23.985282823520095
107 1 1 0.7907758757124953 0.3686592524649477 22.3684084293723
108 1 1 1.5082345555205796 1.3334079023901453 20.661575844174795
109 1 1 2.932678962368111 2.6335632684742554 19.929986917563593
110 1 1 4.0957128659350035 3.665376957453279 18.574223317680076
111 1 1 5.124279204143683 4.137061001733997 16.80766125989436
112 1 1 5.2573920424248675 4.7564629979174935 14.790473048764163
113 1 1 5.967370176733095 6.100511359267524 13.335178318746697
114 1 1 6.761084822635123 6.11147004878888 11.37263309500819
115 1 1 6.598220315514416 8.165038059988872 11.733797152712677
116 1 1 7.000527206430902 8.569825850831899 9.741881801842581
117 1 1 7.737993836871927 10.46090806256007 9.998937258995506
118 1 1 8.661291817914371 11.616002123491711 11.41983644628897
119 1 1 10.274699861203976 12.644995272640603 12.22774444755116
120 1 1 11.588485156245797 13.967622163916843 13.169875182469431
121 1 1 12.891911825638559 15.414292209321065 13.858816361187754
122 1 1 13.915720330672121 16.95257921016828 14.77552907795538
123 1 1 14.20061884468334 17.65759343402945 16.690982338136802
124 1 1 15.536530978112637 16.84304618821753 18.030546875677057
125 1 1 16.19887675118382 15.405925722670691 19.38467157283246
126 1 1 16.223386423868682 13.722176516133507 20.630352737804547
127 1 1 16.129461960304088 14.044188431218982 22.68442578666447
128 1 1 16.756249595995463 16.012584233679366 22.814152067823535
129 1 1 17.644771778806412 17.71761629219242 22.049455144267803
130 1 1 18.38876506206981 17.646145998366375 20.118345436290156
131 1 1 18.68741123901348 16.019247345004896 18.881958955869358
132 1 1 17.721842480776736 14.982354323937905 17.381703122307453
133 1 1 16.72854852815318 13.204220091438273 17.737494291857935
134 1 1 14.839076598916309 12.374154875477855 17.95938952005787
135 1 1 12.932780800630026 12.870026442697093 17.276375474464036
136 1 1 11.019362168523084 13.259553882633238 16.529119240479055
137 1 1 9.51387677651481 13.130718352757578 15.07392973610735
138 1 1 8.1029255177681 13.491365332843632 13.571301281285274
139 1 1 7.057908866089169 13.389299536120516 11.75672412334107
140 1 1 7.191541332804701 13.236882789092816 9.675385646719945
141 1 1 8.041608975456908 13.421057970897992 7.781983226538607
142 1 1 8.440631689528887 13.732167136490991 5.755966273332462
143 1 1 9.015284314721749 13.888861709497707 3.7561883018692908
144 1 1 10.04359772880416 13.94642093200233 1.9530378646384026
145 1 1 10.956631870472652 14.228215045302735 0.10237126296423907
146 1 1 11.876296151831438 14.508265918341682 28.25969051642018
147 1 1 12.66978345135669 14.72027339089219 26.354384775319854
148 1 1 12.956841072218593 14.985790731025665 24.320274826884816
149 1 1 13.167911466280334 15.22376049799217 22.283530559214487
150 1 1 13.80158162776771 15.073450689586268 20.327722494708848
151 1 1 13.65548126712601 14.918024898429241 18.27760390783245
152 1 1 15.028305606354815 14.807371616970865 16.749531348302536
153 1 1 16.423280269392762 14.252099495827373 15.346761251991666
154 1 1 18.386935288191136 14.055719526833991 14.739356721969145
155 1 1 20.36175485678968 13.878214753748887 14.157566004805771
156 1 1 22.37553990891973 14.174130927032916 13.760938348976849
157 1 1 24.243058424019083 14.757583758422161 13.067768096108072
158 1 1 26.15609064482253 15.370635392264598 12.543231977700021
159 1 1 28.212416131352718 15.466807972510011 12.257889813976357
160 1 1 0.2648555138044735 15.518368260542253 11.99507780621441
161 1 1 2.307260157780935 15.527640981326808 11.704505177463139
162 1 1 4.336100554403244 15.685877848259182 11.352643014241043
163 1 1 6.340118471497027 15.899489678080911 10.851162738343499
164 1 1 8.374895242545852 15.541702881376015 10.565272718731114
165 1 1 10.216628245462145 14.694897394630996 10.070641093049217
166 1 1 11.594512503116135 13.140661304240734 10.253504909312062
167 1 1 12.04903413403426 11.217048614163481 10.917119695835654
168 1 1 11.763287086733525 9.908609866073816 12.505715603762228
169 1 1 11.64502091847607 8.398036051070457 13.915134577821517
170 1 1 11.423556949413692 8.097033980180383 15.944984605033442
171 1 1 10.031714940858548 7.2490157687858385 17.214662135906718
172 1 1 8.392497755156112 7.527257968119998 18.44437195854346
173 1 1 6.979449471919831 8.586494597691818 17.36112755663265
174 1 1 5.802188638632439 8.218652148325985 15.69365049131078
175 1 1 3.897527861419303 7.834235799791601 14.973406293823745
176 1 1 1.850898632956786 7.57128807591434 14.982078736285246
177 1 1 29.85059625222611 7.131379162078308 15.214054224415316
178 1 1 27.914179183554136 6.478441982315335 15.514814433375129
179 1 1 26.08816746144913 5.554451822492651 15.812563320462399
180 1 1 24.48785657993537 4.258206541226737 16.05864978006389
181 1 1 23.38060530967039 2.5024676209561068 16.179505663517357
182 1 1 23.321566465463093 0.43060233324278263 16.067145377864385
183 1 1 24.54910069645876 28.798013271136536 15.733462655570051
184 1 1 26.435068057924855 28.05897637164053 15.324277102431221
185 1 1 28.46178530538227 28.053843345345513 14.917272938505567
186 1 1 0.4241129490791381 28.552362808628857 14.483438029602546
187 1 1 2.2189618539822735 29.509670430003503 14.094597921432603
188 1 1 3.987756681311698 0.531291106082139 13.760060427295176
189 1 1 5.680691934154035 1.6994550549781307 13.512117196111104
190 1 1 7.31774766334874 2.949346741926774 13.306845518805225
191 1 1 8.857840803953593 4.330323285311269 13.246388699783786
192 1 1 10.638472505618438 5.32129293261792 13.632508149241206
193 1 1 9.461057564310304 7.022655642151336 13.4785744877488
194 1 1 8.67471545482084 8.170125545965021 15.017296197149461
195 1 1 9.609489850340742 9.991117819485325 15.315255869247993
196 1 1 11.329159998787752 10.995572878715697 14.740198722900343
197 1 1 13.324653941508606 11.457396091815875 14.354466992740125
198 1 1 15.324110371364183 11.93012232248577 14.149609682342954
199 1 1 16.112048911262097 13.157427080157092 12.685746612547863
