ITEM: TIMESTEP
134
ITEM: NUMBER OF ATOMS
200
ITEM: BOX BOUNDS pp pp pp
0 30.0
0 30.0
0 30.0
ITEM: ATOMS id mol type x y z
0 0 0 6.973845106927886 12.330630602028373 28.387833249395626
1 0 0 6.605574250137185 13.082336169897186 29.974835267686778
2 0 0 6.190650459442841 13.851475607799895 1.5463115557271003
3 0 0 5.717759230002262 14.660344992082617 3.0764453415679527
4 0 0 5.380771866594005 15.43732850809506 4.650702381944103
5 0 0 5.049268105529147 16.101399331544215 6.27675056551534
6 0 0 4.4810294452432835 16.876335836301216 7.787261908063142
7 0 0 3.581071333663561 17.909901980288353 8.94127372377659
8 0 0 2.842360317369662 18.80339963175913 10.303315328458465
9 0 0 2.274917135654534 19.233628812676187 11.940977519887428
10 0 0 1.917629004406431 19.690888691168233 13.629026858737468
11 0 0 1.4599394028838784 20.253862188070215 15.260965905590297
12 0 0 1.1516615670321124 20.855425834378693 16.91433551705071
13 0 0 0.8339687683725576 21.78063894931158 18.40801282657336
14 0 0 0.7258257245470863 22.87369458798863 19.81335881730287
15 0 0 0.14320667910554516 23.85682860538013 21.177756296380547
16 0 0 29.78096118547427 25.138167568620467 22.356109388730317
17 0 0 29.51966078392521 26.48673547989441 23.487821246978783
18 0 0 29.080032599565662 27.345890873082094 24.98421495088757
19 0 0 28.716793508131023 28.193140652105942 26.5070438364735
20 0 0 29.085149450046096 28.44437876018106 28.231552404569545
21 0 0 28.968401755703255 28.579772542984774 0.005541975727510679
22 0 0 28.921418579637603 28.70687569043529 1.7852821975610302
23 0 0 27.293042166618843 28.62824345461967 2.5213217167168325
24 0 0 26.055691305430035 29.90494423455953 2.746225047886574
25 0 0 24.65238861302037 1.0104700432407432 2.5910440943159543
26 0 0 23.14678076895089 1.924626821176186 2.264227677383236
27 0 0 21.928327493871244 3.116085453155175 2.8053280146326056
28 0 0 20.420110998015602 4.067990064874609 2.745045948981396
29 0 0 19.040863624411802 4.40028307977517 3.828455914550203
30 0 0 17.821420522506077 4.748145636777253 5.087597757238053
31 0 0 16.655263153647653 5.003116107664345 6.416288105279972
32 0 0 15.311440417942492 5.347410398844104 7.535545266762066
33 0 0 13.810479458795829 6.009046171297654 8.22885500520972
34 0 0 12.283306729018141 6.642185484688731 8.901014459315236
35 0 0 10.953490012894267 7.135890037133575 9.994882454200955
36 0 0 9.798589621337452 7.67918990579807 11.255749437044411
37 0 0 8.795812755008237 8.155770869603892 12.664396107937375
38 0 0 7.664776774788304 8.488458036836112 14.016919667619335
39 0 0 7.068694467226505 9.942889036282098 14.890703917389068
40 0 0 6.906521515039764 10.80617162204332 16.462164811247103
41 0 0 8.063216001241457 11.014707764149144 17.819768044832323
42 0 0 9.750155637997326 10.737039745584699 18.360423244674404
43 0 0 11.378708987507045 10.369897994946848 19.001874184498114
44 0 0 12.719699826310192 9.202681794054309 18.833731641072156
45 0 0 14.500636050432309 9.212596738392627 18.707582326474547
46 0 0 16.222518066344787 9.599752131855363 18.434653091873045
47 0 0 17.346419664384186 10.784966112774166 17.711936506468074
48 0 0 19.106731974779038 10.836000139330213 17.419127393838114
49 0 0 19.899789638171583 12.431249208812252 17.53882032421566
50 0 0 20.40589571737373 14.117516728668969 17.250757520894442
51 0 0 21.133974027340223 15.491646757792548 16.376717964128094
52 0 0 20.93690514157186 16.408754413970232 14.857166191360859
53 0 0 21.31962697601033 16.12372007842583 13.137808191210722
54 0 0 21.818787400852592 15.902094677419507 11.43941635854108
55 0 0 22.362699494848158 15.412981244447554 9.812361972341396
56 0 0 22.625794473102083 14.565960230850216 8.261397663708182
57 0 0 23.09405123018505 13.768855659521058 6.730687303714518
58 0 0 22.962165161560506 13.284200101144405 5.015897832260826
59 0 0 22.553286599369887 13.629914482651074 3.312354531047609
60 0 0 22.13940108388445 14.403838144366354 1.759872655015021
61 0 0 22.45836968660917 15.684444334365033 0.5635067885247445
62 0 0 22.545361678236944 17.160367298113286 29.571251411830062
63 0 0 22.631853837878896 18.140146596364012 28.083727587022935
64 0 0 22.79563156203392 18.202129235255235 26.30384526604699
65 0 0 22.74148433106753 18.205212152883163 24.5150248143124
66 0 0 22.22312680043212 18.095262098977837 22.80676520631858
67 0 0 21.382739348670125 19.40467534372211 21.927355794697117
68 0 0 21.02003443526693 21.15062892393295 21.975399133705015
69 0 0 20.917916168568468 22.924218586526038 22.11175676803484
70 0 0 20.80764052306534 24.689215714551935 22.328525320197706
71 0 0 20.822805610588393 26.45656285020233 22.079246652291395
72 0 0 20.957343363041957 28.189626276647935 21.6619230447394
73 0 0 20.918649853047516 29.88327614864825 21.07641205896485
74 0 0 20.795567980610887 1.5929207160427252 20.546233871237238
75 0 0 20.560109726761414 3.3676233741541064 20.65030275740165
76 0 0 20.34187923406907 5.139386915588143 20.80800095789382
77 0 0 20.327223566874405 6.917933130316337 20.99025002738756
78 0 0 20.334056057202144 8.675165594054207 21.300592708196103
79 0 0 20.334343854745402 10.435594706417026 21.583200417277315
80 0 0 20.217286928373152 12.1644281347804 22.004006390597638
81 0 0 20.292275131386862 13.735477625964593 22.841040162986804
82 0 0 20.158221885015926 15.389351322541332 23.49229088377966
83 0 0 20.258411797452 17.027842259273193 24.190399651272124
84 0 0 20.39406638208941 18.564240913571496 25.08803997329063
85 0 0 21.050074008464755 20.14211488708606 24.57262400318172
86 0 0 22.60583906548838 20.518333728259122 23.778608691695148
87 0 0 23.724165029296792 20.14540658234642 22.43409549386221
88 0 0 24.204530685684553 19.23030639723 20.977451673988682
89 0 0 24.54421268365618 18.559905312730262 19.35698016875723
90 0 0 24.7201930450858 18.12677203726183 17.630435429402826
91 0 0 24.806401071688594 17.93895252177048 15.85256720264814
92 0 0 24.832657207749072 17.95354423973799 14.062311150534873
93 0 0 24.927134119317778 17.811429948701914 12.279889947096056
94 0 0 25.141052735789835 17.671745929812907 10.508889136738144
95 0 0 25.524534688146506 17.345690767162058 8.793121040978074
96 0 0 25.987585226414193 17.03410315369226 7.093038343883518
97 0 0 26.48911034910528 16.756608634897926 5.3969405187119195
98 0 0 26.992240136489066 16.482911864148694 3.7012447989635033
99 0 0 27.497035045558224 16.21249222479068 2.005966530953652
100 1 1 26.273250775957184 26.054002949244687 0.3271148635690085
101 1 1 25.856286866038648 26.20942921000744 28.305193885215676
102 1 1 25.019529985510133 26.814372993731805 26.555107815384943
103 1 1 24.94145544812428 27.72832751391693 24.721428089510503
104 1 1 26.053723000829528 28.930333870338675 23.384988298733393
105 1 1 27.93972798729989 29.710670537346346 22.85312729627243
106 1 1 29.979525146814883 0.0406342806335086 23.182360863859433
107 1 1 1.0378842309762157 0.8274953081328555 21.58167725080171
108 1 1 2.5168925352293843 2.0980632358467854 20.894734166273764
109 1 1 3.5350709725829494 2.8722980490194425 19.272009694764343
110 1 1 4.639815478662396 3.8502822117318494 17.8866395412502
111 1 1 5.076018238640956 4.5853098587669505 16.024135229194552
112 1 1 5.7251791387603514 4.888206058297937 14.06855919665864
113 1 1 5.540733094476126 4.137256011002549 12.1255721866877
114 1 1 6.1336832681189986 5.5888287897480105 10.764356314376421
115 1 1 5.668081401327478 7.582124811135185 11.30232293493703
116 1 1 6.030512867653809 9.496930195963904 10.519615410185466
117 1 1 7.165715410811975 9.958170015426443 12.179846801180773
118 1 1 9.120805901152124 10.595976360193015 12.296757885972944
119 1 1 10.185295098038265 12.313546849737854 12.762890893531933
120 1 1 11.421745610911112 13.95915798647044 13.108116269034282
121 1 1 12.403027666466796 15.637823225172891 13.864032761482642
122 1 1 13.464377293238133 16.68042981809446 15.31157719468222
123 1 1 14.43194677787648 17.477607134783714 16.953387266580233
124 1 1 14.884318631228108 17.548987335190787 18.950074486978366
125 1 1 15.298096792029558 16.18169185030617 20.458808102712897
126 1 1 15.558864426851692 15.102586058481359 22.246298673010834
127 1 1 15.79898707320835 16.696450467482144 23.55545348182221
128 1 1 17.607493387027944 17.363019378880093 22.840256169642654
129 1 1 19.240521558252993 17.88088567624686 21.69569509828108
130 1 1 18.922179120628495 16.3786875807616 20.313247825959582
131 1 1 18.182446652785682 14.842890783653058 19.1492452924174
132 1 1 17.448529797016498 13.168621903661647 18.185171110712094
133 1 1 15.488467994806049 12.65793902743508 17.75764764522615
134 1 1 13.669734961286158 11.93162712076939 17.098115737977846
135 1 1 11.730875852090138 12.054358412848108 16.38848264332475
136 1 1 9.923868279450911 12.20180034771758 15.398632680738885
137 1 1 8.338147073116431 13.307710848835633 14.68468857772854
138 1 1 7.491352759669378 13.041618838546368 12.808591095090161
139 1 1 6.846724753373733 12.941580726490175 10.838435314996817
140 1 1 6.938919803244428 13.178194493372223 8.782289800262744
141 1 1 6.745321956428469 13.414496854604034 6.729746886834512
142 1 1 7.327407713107076 13.584059898597808 4.741563831203242
143 1 1 8.332082654694547 13.75167020187722 2.935004008511942
144 1 1 9.16879172433279 14.015939276429012 1.0599824871461807
145 1 1 10.42502450984341 14.12922376699113 29.42246121015131
146 1 1 11.442535647302849 14.44605987568392 27.644668099510895
147 1 1 11.845463480263563 15.033375193480481 25.69694390813616
148 1 1 12.433243086344916 15.452898459156794 23.75755845327113
149 1 1 11.703325980952169 15.886414901474039 21.86956888790443
150 1 1 12.196202673125239 15.934590009704603 19.85693876871153
151 1 1 13.397307409443092 15.145949848062518 18.362968690561306
152 1 1 14.556785431248105 14.624382910769166 16.713384153777124
153 1 1 16.443079667284056 14.361443426001214 15.8784674563777
154 1 1 18.269912099250494 13.915770494214565 15.012363610764508
155 1 1 20.296397528912408 13.93949554276602 14.546709131661498
156 1 1 22.31280201595569 13.950242557536626 14.03801149041369
157 1 1 24.304903878782543 14.279257072460956 13.5443446020251
158 1 1 26.22439363574761 14.753584923661093 12.875123412203427
159 1 1 28.071620724801445 15.450942746100756 12.199370722107254
160 1 1 0.03104405927751844 15.8796189639576 11.675010244137239
161 1 1 2.0217566012092987 16.044775535605154 11.15046034023244
162 1 1 4.030832631712248 15.959153470118087 10.692073003202037
163 1 1 6.022110165761875 15.800430262952855 10.176174771343739
164 1 1 8.028136669650074 15.3274071968844 9.982842207147998
165 1 1 9.445116972173139 13.831934962178707 10.168704148609049
166 1 1 10.768843272404022 12.272135575697948 9.862442887354916
167 1 1 11.71744325544262 10.629966775835536 10.707195317431362
168 1 1 12.02478845984469 9.105630619357958 12.083322456970361
169 1 1 11.57531120636183 7.813754068243513 13.64615282395416
170 1 1 12.017583079438708 6.864288009739352 15.444535261246283
171 1 1 11.049568345066856 6.593181191711085 17.26294800524504
172 1 1 9.910397793270095 6.761023622927689 18.990345551979274
173 1 1 8.040450740419747 7.586492026377814 19.35337600086133
174 1 1 6.888915727732262 7.877695398860586 17.651542528021935
175 1 1 6.4270575786985855 7.275432000370286 15.718669177118457
176 1 1 4.563342122939224 6.937005890398058 14.858634193287477
177 1 1 2.495681984325409 6.707011595098694 14.786587277252949
178 1 1 0.4572453545416999 6.3680856985516 15.012494211069681
179 1 1 28.487501574556298 5.799315422183112 15.34850583016645
180 1 1 26.63083043082767 4.924267985672938 15.674049086590728
181 1 1 25.011334139527936 3.640506612809789 15.931238190550252
182 1 1 24.045416061044328 1.7979654550736979 16.013910168817464
183 1 1 24.5178729179135 29.78572497247334 15.796947889207036
184 1 1 26.149735582221563 28.572373684602084 15.411383840633643
185 1 1 28.136165334717358 28.281135580987684 14.957340385972557
186 1 1 0.09470022361335241 28.71209277996967 14.5080198064644
187 1 1 1.9685917745195811 29.46455294629196 14.112169012213476
188 1 1 3.8048722065558613 0.35479216218826215 13.78939575066055
189 1 1 5.457877450808747 1.5770656113808954 13.559305130626647
190 1 1 7.155481411117895 2.7578223334286 13.427663915953227
191 1 1 9.018231186278209 3.662692446489057 13.417637163330589
192 1 1 10.722540936329885 4.807734167546272 13.643008082172308
193 1 1 9.353788765300859 6.184785850253036 14.368844019951752
194 1 1 9.189227442131054 7.657586497846288 15.803335541361717
195 1 1 9.701416363092243 9.61851761349074 15.393261854296524
196 1 1 11.676039707652189 10.011552158309131 14.849462491556551
197 1 1 13.621297548071396 10.626234590178662 14.44891427386915
198 1 1 14.974817561495653 11.484816881599716 13.116069482623496
199 1 1 16.13899227061171 13.06601247935292 12.47129267241642
