ITEM: TIMESTEP
139
ITEM: NUMBER OF ATOMS
200
ITEM: BOX BOUNDS pp pp pp
0 30.0
0 30.0
0 30.0
ITEM: ATOMS id mol type x y z
0 0 0 6.693683059784867 12.535937188631378 0.12304943926116804
1 0 0 5.928470751983906 13.53068985651675 1.3948583366845027
2 0 0 5.302296948515099 14.565956782564676 2.711986035175311
3 0 0 4.660740081663447 15.57160486331765 4.045775879553948
4 0 0 4.801573280380172 15.994722120152748 5.7821157488209645
5 0 0 4.580319707638183 16.68445944898637 7.426108105830559
6 0 0 4.0003879751256 17.87492180876621 8.638464243852413
7 0 0 3.13478884896898 18.721975634645197 9.963986238286743
8 0 0 2.1953315882102813 19.66113973534855 11.174773082267615
9 0 0 1.9816269213348394 20.26769622348659 12.856339308656631
10 0 0 1.5211603338090227 20.697941540633863 14.542436567457507
11 0 0 1.1878046861759664 21.058379509820174 16.272020854967895
12 0 0 0.6595857237605222 21.619447697572102 17.893101841092378
13 0 0 0.6453631659511471 22.49528811497131 19.45446717932722
14 0 0 0.2267723878004928 23.576094692673298 20.81216158875114
15 0 0 29.83371240686753 24.929284555431323 21.903785033130013
16 0 0 29.451492835785814 26.326681239409094 22.945833771855927
17 0 0 29.146173962976963 27.55718275616581 24.201810845956487
18 0 0 28.93336088050446 28.463606497347648 25.71939860690618
19 0 0 28.758737422728657 29.083538326211855 27.378484653994427
20 0 0 28.773919635305656 29.371649553608865 29.137485851365046
21 0 0 28.91981759523421 29.46123757757709 0.9126309983803729
22 0 0 28.6398391530904 29.82529394249062 2.6375781345638436
23 0 0 26.944392928719054 29.5135095293561 3.1169646015350128
24 0 0 25.593880193793467 0.6734597317563077 2.9232386133769435
25 0 0 24.166837112299078 1.737731732047024 2.7167617631554095
26 0 0 22.750940485862706 2.8342279263023453 2.671696317448216
27 0 0 21.077154184744266 3.4389946367980913 2.8772709226095947
28 0 0 19.756190872290382 4.64257363007625 3.005787763570324
29 0 0 18.452707571430775 5.02392626719763 4.169516915049934
30 0 0 17.077304850858233 5.241003404009573 5.289181325159041
31 0 0 15.686833859136156 5.575302445306568 6.3596619470545726
32 0 0 14.239067236284113 5.930369684812946 7.347190989101802
33 0 0 12.655638365256353 6.306906033540291 8.0912840034582
34 0 0 11.544030877126755 6.663619128267237 9.448932791156288
35 0 0 10.251465928141798 7.2812977360660565 10.51856038110062
36 0 0 9.229652401813905 7.408084002768495 11.977765308253288
37 0 0 8.242143038309424 7.626689390998185 13.450128487028351
38 0 0 7.556084838211224 8.81523429604404 14.597028498629745
39 0 0 7.26411896810312 10.456537091821948 15.245680516729774
40 0 0 7.022856219538193 9.511354684414437 16.742726947122925
41 0 0 8.049504925928526 10.248004880555762 18.005126866280534
42 0 0 9.749555710946913 10.321151460805863 18.554032264124178
43 0 0 11.523023324627378 10.201592355852886 18.76571634873012
44 0 0 12.930749246434734 9.394578809523836 19.523500351099006
45 0 0 14.558773937447704 9.281856836077822 18.784751591809446
46 0 0 16.182539162756584 8.984585602098491 18.087145914921635
47 0 0 17.942470934554823 9.293793674140623 18.20304461333675
48 0 0 19.246647012126324 10.3896218050513 17.646434285017737
49 0 0 19.45067555433032 12.149350967451824 17.372012175451303
50 0 0 20.56659729648705 13.55336902748277 17.356660104471423
51 0 0 21.092801598021456 15.116707571755475 16.655012415304874
52 0 0 21.379470905002545 16.310808812861413 15.34915870021258
53 0 0 21.70635882529641 16.52086457877906 13.603307561152912
54 0 0 22.1896933286845 16.191438338498298 11.918343129797826
55 0 0 22.740132543862398 15.879202294932595 10.25512713258739
56 0 0 23.158343567598052 14.98535265356789 8.774619303383727
57 0 0 23.198396644314016 13.982395851294525 7.3032225244091675
58 0 0 23.758899031160336 13.121656335507181 5.841551370543739
59 0 0 23.52061299390931 13.036064377318286 4.068963827287983
60 0 0 23.37294164755965 13.601625931074702 2.374088560197457
61 0 0 23.01932122592533 14.93994049985454 1.23019081104692
62 0 0 22.968640431751876 16.25225237158431 0.006724353676824676
63 0 0 23.087489229832453 17.810120986356253 29.13229554502055
64 0 0 23.010096537733634 18.268423093187685 27.410850870981488
65 0 0 23.092360443683493 18.3681298221983 25.63555076147308
66 0 0 22.550600221489063 18.710490799647665 23.97155874641043
67 0 0 21.849095296675962 19.74387682824938 22.693701354864082
68 0 0 21.36545106048364 21.463418167331398 22.538973564758567
69 0 0 21.227352463069394 23.224169541172202 22.86667820357739
70 0 0 21.29698689580837 25.01790427699416 22.861903608041576
71 0 0 21.345660590999884 26.808617196614787 22.802514198344312
72 0 0 21.36132887814789 28.574706636111653 22.50689517690529
73 0 0 21.64591492001061 0.20184564875360725 21.823406112769725
74 0 0 21.901158262331947 1.8176065900697544 21.103161837012532
75 0 0 21.34544886135537 3.4845223292768153 20.783113397718466
76 0 0 21.04969955355022 5.245847967041623 20.814522105905045
77 0 0 20.904181706174644 7.021831281919566 20.97854698235617
78 0 0 20.692957984225046 8.785239946301436 21.233539839398624
79 0 0 20.622206104260297 10.479464387786578 21.823969451626432
80 0 0 20.668986847014395 12.126111189860204 22.533716353254018
81 0 0 20.516995562910317 13.855961519861305 22.983661560363696
82 0 0 20.614744333797464 15.45961295521302 23.776550771285535
83 0 0 20.452661668456297 16.965277898397364 24.732905358828166
84 0 0 20.300125668621963 18.53757422637389 25.574103378368992
85 0 0 21.233975513889103 20.063182260593425 25.512443298018862
86 0 0 22.517435555900924 21.139183784017415 24.881801305733646
87 0 0 23.935551097613622 20.766126835570535 23.856924937541617
88 0 0 24.303791414982257 19.98903476612636 22.288402824632882
89 0 0 24.676358976918657 19.04625844339089 20.81342119228051
90 0 0 24.873240630821854 18.413948552499246 19.151653806649563
91 0 0 24.93483387237842 18.122387793029112 17.389325144070604
92 0 0 24.887764712018193 17.85013619980177 15.626509606314894
93 0 0 24.893635137919347 17.9253237830668 13.845076977007094
94 0 0 24.87345896158982 17.93697559087437 12.06076927466404
95 0 0 25.07441533696383 17.69740304840528 10.303219974939658
96 0 0 25.39319179869816 17.38664017438272 8.57282762653434
97 0 0 25.772838406927622 17.001303705343442 6.86859725436982
98 0 0 26.156605086895702 16.609067635303198 5.167728420783667
99 0 0 26.53864980685033 16.215434303913845 3.4675642717869652
100 1 1 26.84341390179555 26.539829719699053 29.374709197953077
101 1 1 25.774549530956747 26.54275642170074 27.665188515025896
102 1 1 25.106222868629576 27.17942416277768 25.881294861349517
103 1 1 25.044554195534534 28.05910744044426 24.011999423650217
104 1 1 26.130246744725383 29.223615251578572 22.681338115968245
105 1 1 27.838856998211384 0.06932354999944311 21.858277704549906
106 1 1 29.857879084458265 0.33412092265249876 22.405245317953813
107 1 1 1.4156196819644709 1.3142035698926549 21.4897731442551
108 1 1 2.9747516666062688 2.3578532778784362 20.730333682595603
109 1 1 4.010014306651011 3.0229024193173166 19.10491857786504
110 1 1 4.551617013850655 3.8750672996853064 17.32781816768086
111 1 1 5.190854773423003 4.368192095529669 15.457779282332076
112 1 1 5.970757376780646 4.431262818838254 13.561362347886444
113 1 1 5.247211094377653 3.7220964255499336 11.765601647425543
114 1 1 5.418007484984102 5.689927418136787 11.142405481017722
115 1 1 5.69783816719359 7.636945072804457 10.379698433742652
116 1 1 5.570661672691869 9.381781372462516 11.513601525187827
117 1 1 7.252650546089743 10.244924318385713 12.452949055324769
118 1 1 9.271251362667796 10.610330348670622 12.866777895998004
119 1 1 10.143194353823487 12.407668168766016 12.450417187393327
120 1 1 11.210955511560108 13.902909101844273 13.356457025997077
121 1 1 12.21944222385168 15.482636966254967 14.24642785799499
122 1 1 12.983831906901191 16.514602788026334 15.889376907997658
123 1 1 14.283283252192353 17.582621278573257 17.120781461049646
124 1 1 14.604769751979589 17.413625358508483 19.167528799953107
125 1 1 15.058241907536837 17.19661768031843 21.179809006283293
126 1 1 15.97108086411 16.15616303009606 22.734685465931214
127 1 1 16.07766492684431 18.07579466376828 23.480786776323125
128 1 1 17.92482672675644 17.85656826967319 22.582238467478692
129 1 1 19.525597847509356 17.32855769588924 21.380582613889324
130 1 1 18.923640056519677 15.542107196087583 20.513868125372436
131 1 1 17.875721468448113 14.215064718747795 19.31322722630338
132 1 1 16.456749558925633 12.747534885611184 18.96377253924847
133 1 1 15.041431114500572 11.696022470091059 17.86072014039454
134 1 1 13.236971031845277 11.844792068063315 16.841864421969714
135 1 1 11.263650016233608 12.163227875554982 16.299237538218172
136 1 1 9.583111338812351 12.162002388389109 15.098886528451553
137 1 1 7.832766572273307 12.84823626040146 14.236443196434486
138 1 1 7.3601093498911245 13.077224411362629 12.231999517679029
139 1 1 6.847636764179818 12.372302718716908 10.355633965051606
140 1 1 6.5036882271351555 13.107669384713418 8.44742835718337
141 1 1 6.608170902700238 13.314485632142357 6.3919023041770355
142 1 1 7.03130781102393 13.467980719574697 4.379239597625109
143 1 1 8.025741970645047 13.698736460042225 2.5738059939248066
144 1 1 9.067149735880717 13.945689606216387 0.7928935371608371
145 1 1 9.969716571903128 14.282392525621706 28.95448166113106
146 1 1 10.87076852022302 14.592797263510718 27.105536253427772
147 1 1 11.435325533776307 15.058419888836207 25.155514173380585
148 1 1 11.715874158937691 15.672462767218072 23.195318513143615
149 1 1 10.796070933234494 16.207567364735873 21.419200420922564
150 1 1 12.11509138769209 15.783931326330087 19.880087064037824
151 1 1 12.927789415829888 15.12288234008691 18.094257612580837
152 1 1 14.559763473810012 14.608288917249492 16.92682597231718
153 1 1 16.528563017013525 14.633694103482103 16.280291920238646
154 1 1 18.36528433647995 14.029129354979068 15.520923741585278
155 1 1 20.22026142379838 13.928955597266588 14.565296403507114
156 1 1 22.238620486508182 14.12341683766708 14.098758865675231
157 1 1 24.240005983595697 14.274972130043794 13.593745337441574
158 1 1 26.245383751522475 14.50367073584757 13.180359290381915
159 1 1 27.993222738383672 15.136125744252725 12.31882127697533
160 1 1 29.74711006921631 15.874591930296914 11.538636890975312
161 1 1 1.707077496674345 16.10763308593464 10.935985362627068
162 1 1 3.7075057556303426 15.993332925655409 10.429669123349134
163 1 1 5.712305058620907 15.61637077389138 10.043751841614359
164 1 1 7.717083790729179 15.078884880416258 9.884938379455653
165 1 1 9.224553378114924 13.63566221244791 9.842703614878456
166 1 1 10.179662129977975 11.791513617819755 10.10077043029286
167 1 1 11.546823493231557 10.257303713067945 10.487511244481576
168 1 1 11.793912820847577 8.742718678527027 11.896922241783408
169 1 1 11.940395271433152 7.326026043602414 13.414138823141528
170 1 1 11.921696386423243 6.202388952803614 15.162634408206648
171 1 1 11.797403949701364 6.4068429514180965 17.225895600461236
172 1 1 10.517642557846258 6.520640429623759 18.8612517622619
173 1 1 8.77441600355673 6.936153555707043 19.910509662198425
174 1 1 7.219316405586763 7.379701663828104 18.602651810294745
175 1 1 7.061378969529705 6.844535024419642 16.6015820076152
176 1 1 5.751777095276204 7.292288488457128 15.054893696608788
177 1 1 3.868683364265604 6.489911892476511 14.691011076249396
178 1 1 1.8019386935421022 6.220993210477856 14.77886350369614
179 1 1 29.770305341022002 5.8380260194817115 15.084560997127378
180 1 1 27.821821739061424 5.170111476057519 15.448931119037702
181 1 1 26.0356594676954 4.128955724276653 15.756541451910177
182 1 1 24.679692842278076 2.554414581834301 15.937489110032917
183 1 1 24.596953311797076 0.48283323726386834 15.826244360697782
184 1 1 25.953946546932322 28.95505193414261 15.470677401227857
185 1 1 27.91264136964213 28.43453319488916 14.978309149411459
186 1 1 29.905554916729287 28.858613596396506 14.553235934333483
187 1 1 1.8631786446782033 29.352142679101203 14.075874804883703
188 1 1 3.6615272548788114 0.3584586410069607 13.832998024277217
189 1 1 5.360951742518674 1.5147847574122522 13.601830375926877
190 1 1 7.277780307594529 2.2754973730561514 13.662388067643827
191 1 1 9.071383175898967 3.292008732453732 13.551254255715955
192 1 1 10.63715411651858 4.642208468471585 13.634272151344467
193 1 1 9.479349438620615 5.854217233976821 14.873099918508915
194 1 1 9.693365104061444 7.4521914712572634 16.1835571563644
195 1 1 9.918759746398685 9.372252549726506 15.427017378284567
196 1 1 11.914299262211577 9.586741774474643 14.914689186067928
197 1 1 13.752553568447375 10.226708312529517 14.235187404566297
198 1 1 14.661872730089607 11.354842780944109 12.740266105571537
199 1 1 16.06731075326327 12.843399254156829 12.43422108316288
