ITEM: TIMESTEP
140
ITEM: NUMBER OF ATOMS
200
ITEM: BOX BOUNDS pp pp pp
0 30.0
0 30.0
0 30.0
ITEM: ATOMS id mol type x y z
0 0 0 6.592619107980016 12.60503849159739 0.5304629353967911
1 0 0 5.59396943192016 13.646241793466054 1.5835799241596067
2 0 0 5.085055522909325 14.719971661748605 2.9182305455872037
3 0 0 4.504881855362588 15.706761728473289 4.292698578533093
4 0 0 4.637722896001103 16.156588516427103 6.0188622926353545
5 0 0 4.435683935573758 16.899281981080758 7.629162436593584
6 0 0 3.839370012540221 18.14579364702797 8.749790574058167
7 0 0 3.032783729432044 18.896284735973335 10.140933322584461
8 0 0 2.221692090973221 19.777871226511905 11.444237555591497
9 0 0 1.842522311205335 20.44839843641065 13.036829704669966
10 0 0 1.4951913143406799 20.858036718238417 14.724747093404112
11 0 0 1.0790403534274342 21.26431459110242 16.40080696359313
12 0 0 0.6778685687408428 21.784283328838583 18.05105942324136
13 0 0 0.5574508034194846 22.63905312978342 19.608631355400483
14 0 0 0.09455089603415834 23.690456763849397 20.979621493669473
15 0 0 29.830459177259556 25.15831866603093 21.97831552334114
16 0 0 29.3716893291428 26.505414381748565 23.078057076062933
17 0 0 29.102120353222666 27.752687244334936 24.347031078583548
18 0 0 28.846257486896935 28.697140739517668 25.85544493262629
19 0 0 28.82870226439567 29.262462749315784 27.557564401046516
20 0 0 28.69268655126662 29.521263536002714 29.32108350573969
21 0 0 28.891639402437395 29.690622088897346 1.0874252408061769
22 0 0 28.583617500119022 0.024576061766520274 2.8167603455700165
23 0 0 26.869462144812143 29.74302223299821 3.236701085187071
24 0 0 25.470055233917954 0.807005622484835 2.926495187807461
25 0 0 24.067519197963563 1.9000132410310009 2.767335928325933
26 0 0 22.646368405664354 2.9819316719648037 2.7911523345560165
27 0 0 20.951875705684795 3.546949571003153 2.8417613629595366
28 0 0 19.630328551337705 4.724715719106953 3.092709750331723
29 0 0 18.33193355408832 5.113412694015055 4.261897967646542
30 0 0 16.92053169841683 5.371926853866037 5.329131853420985
31 0 0 15.480618786311828 5.689905497488901 6.333578029444682
32 0 0 14.006700557255447 6.055462307932043 7.266619770709304
33 0 0 12.475264913535721 6.340056493438763 8.132569977131501
34 0 0 11.371381148644668 6.705447344197736 9.48807892797745
35 0 0 10.127246827139286 7.258853400320555 10.64619444627107
36 0 0 9.094443570937793 7.326251694026506 12.105184328425707
37 0 0 8.149709123506113 7.549508526314999 13.609104435413391
38 0 0 7.544216209900817 8.905606979735564 14.6146346243749
39 0 0 7.144883884564636 10.465688485092384 15.398596714982478
40 0 0 7.063682797455623 9.327258123727976 16.77718789167714
41 0 0 8.073884202018748 10.086069777050408 18.043052176335834
42 0 0 9.780284732603421 10.234011619717476 18.56240904649064
43 0 0 11.552371172555834 10.103414568835545 18.765082080724625
44 0 0 13.031211440136353 9.52229987881215 19.583373568350858
45 0 0 14.596234537829059 9.225575299170917 18.77189176634155
46 0 0 16.241249696293156 8.993838167334893 18.111404291904588
47 0 0 18.027326008580438 8.975530175073924 18.189551296818816
48 0 0 19.097309049478234 10.345486009905995 17.766753746600426
49 0 0 19.46114271575467 12.043390272522911 17.33713915390529
50 0 0 20.548477190780392 13.463428597977847 17.47553021155954
51 0 0 21.044639725357328 14.986673303061933 16.665574356215892
52 0 0 21.475879165193703 16.227943111544473 15.444323957927365
53 0 0 21.786899438353803 16.62992425950778 13.7276839720171
54 0 0 22.251563067182662 16.304439490735227 12.030812883288576
55 0 0 22.813335323156423 15.933850892512163 10.37259266800403
56 0 0 23.233881741903094 15.063562150708313 8.863456406322728
57 0 0 23.26190807820738 14.037673466774448 7.392252020118627
58 0 0 23.871506291027796 13.095793925451643 5.991213465802045
59 0 0 23.72886415997234 12.95241914558069 4.2079028374467615
60 0 0 23.627680504209053 13.510368266611462 2.5060091019703146
61 0 0 23.11768673494856 14.769025151059544 1.3392750155359268
62 0 0 23.09400904320782 16.08355998433349 0.12980940818683429
63 0 0 23.150876382168953 17.674086229755016 29.32005880844306
64 0 0 23.080172113652793 18.24164355741474 27.630404346863216
65 0 0 23.141051927388116 18.389156904951275 25.85548625463444
66 0 0 22.624790625281946 18.82351584980232 24.202995435304107
67 0 0 21.932374494383446 19.821551461542448 22.89095789161172
68 0 0 21.457105541946685 21.5385957481839 22.70524443104469
69 0 0 21.3060073738506 23.302445537650232 22.980154390256683
70 0 0 21.380671750431134 25.09025850995038 22.956452107347804
71 0 0 21.444717513537782 26.87553961914202 22.93159154499396
72 0 0 21.485582398156435 28.64150890123737 22.657929914496982
73 0 0 21.7597681719772 0.263910508243202 21.953869433856994
74 0 0 22.055892702377527 1.887554113163622 21.25737416132111
75 0 0 21.547025100051943 3.5459424290917383 20.82022759694871
76 0 0 21.20283562801359 5.2997270176965285 20.84003489257465
77 0 0 21.01355091862233 7.0692915380970955 20.985590453761894
78 0 0 20.760796263300414 8.815306295358946 21.257661708991634
79 0 0 20.709799783989308 10.475111295361858 21.912636205677547
80 0 0 20.727644074214314 12.126722831352582 22.586122508003246
81 0 0 20.59695110810592 13.850716022429197 23.030044136908106
82 0 0 20.65877321053264 15.426217665325902 23.864713986840314
83 0 0 20.522723271630387 16.936495250966843 24.808527016865902
84 0 0 20.316564174670827 18.52671179638366 25.596618815091457
85 0 0 21.255349966066788 20.041560197815965 25.698021467478874
86 0 0 22.47510165609195 21.199243117802915 25.106513266890612
87 0 0 23.941902436460925 20.930538634035866 24.12454722928313
88 0 0 24.35130655716581 20.10616011463556 22.594468090522714
89 0 0 24.69526939308842 19.188961926592793 21.102893380756832
90 0 0 24.895868971357174 18.480211957970692 19.475635352064565
91 0 0 24.962334735274457 18.152453676450488 17.716110534027756
92 0 0 24.895070385532478 17.86660171053512 15.947592855707802
93 0 0 24.883830686633953 17.904113374486737 14.155166357754224
94 0 0 24.824286290751232 17.9980911338527 12.366909806086984
95 0 0 24.985880020136282 17.763188137989715 10.600345691113713
96 0 0 25.279488905126602 17.460585263833224 8.861507199578718
97 0 0 25.63458637233179 17.050028413431818 7.158383526651844
98 0 0 25.988508294382168 16.634477532029965 5.457622337027577
99 0 0 26.339767515900128 16.216125609105884 3.755549800435717
100 1 1 27.026408495876144 26.63223198259439 29.278207601916563
101 1 1 25.7277733973689 26.575563609586162 27.565669006357208
102 1 1 25.090748025711175 27.263547528269722 25.683472815458053
103 1 1 25.04714119471258 28.14765554366201 23.816546668198967
104 1 1 26.168649276500545 29.292490484016763 22.52505875141351
105 1 1 27.828463481506624 0.13363277691845765 21.685647936441555
106 1 1 29.77932039245763 0.3762110404194922 22.23562288405587
107 1 1 1.44219584795444 1.3815298708051624 21.527147312249685
108 1 1 3.0812913261767387 2.403412415340747 20.73349560117426
109 1 1 4.153911494553655 3.0852204395152167 19.07164075972703
110 1 1 4.51199353401419 3.8899707785374353 17.208358591930338
111 1 1 5.242242526312757 4.261224900313243 15.327478832191915
112 1 1 6.040706026336108 4.350854606025711 13.426977272625129
113 1 1 5.202969188799901 3.770069103328289 11.616825168154234
114 1 1 5.2621910616640255 5.808825454394048 11.218218033109158
115 1 1 5.694474530587937 7.640630795490283 10.341239874299795
116 1 1 5.616084155037982 9.202427125620058 11.710349290971052
117 1 1 7.2330603215227836 10.272764605917391 12.407965766419924
118 1 1 9.20100713487919 10.608073058795503 12.973823037067774
119 1 1 10.123402829909974 12.435480225001074 12.469985143604983
120 1 1 11.184813935776113 13.941053398104929 13.434121164158856
121 1 1 12.201667457643518 15.461193384864755 14.38270290948386
122 1 1 12.905428307252858 16.532839786810264 15.983023577047508
123 1 1 14.201206824681176 17.541497937534373 17.212381687268515
124 1 1 14.564926704652995 17.35403076178326 19.23143901860861
125 1 1 15.012938848972498 17.391161736489646 21.248490288148087
126 1 1 16.020479018870553 16.403714269236726 22.76187038737682
127 1 1 16.17726384712743 18.369307531767284 23.45075403415097
128 1 1 17.98547190776279 17.939768000695977 22.508205973907547
129 1 1 19.528787592663214 17.179161733765852 21.32976503931293
130 1 1 18.894629243016354 15.37300100610146 20.528001552405463
131 1 1 17.78219997979243 14.038070340833908 19.37263780288725
132 1 1 16.20672220793639 12.702371967471962 19.077302775438806
133 1 1 14.951010691666376 11.557330625844637 17.883734130998022
134 1 1 13.185408191562857 11.853381923394192 16.838868175782427
135 1 1 11.214883669573258 12.16503855460824 16.262769851423325
136 1 1 9.490414599657202 12.186329483560595 15.108568007804907
137 1 1 7.767821056606315 12.728047760054537 14.086535446235386
138 1 1 7.335845886575678 13.045266192118815 12.091213255647212
139 1 1 6.739840485446937 12.283196579177194 10.271403361590796
140 1 1 6.435933678047268 13.059155606919159 8.385767872384102
141 1 1 6.607528095481873 13.2948198927538 6.338163614322269
142 1 1 7.015522538026791 13.443450287901015 4.312465545379804
143 1 1 7.986867864223069 13.698522794089762 2.4998869194641165
144 1 1 9.055875906501985 13.935221396845746 0.7366007222598535
145 1 1 9.867168006015817 14.309392265575912 28.86344601152998
146 1 1 10.726673810404883 14.632391596143785 27.005643541273116
147 1 1 11.338037784960676 15.05925144063641 25.07617010045133
148 1 1 11.536729323951098 15.704385488174886 23.119867042703174
149 1 1 10.668580703036495 16.25665213217912 21.317081612421717
150 1 1 12.087063454875095 15.735048910573914 19.895215877334973
151 1 1 12.844283538125895 15.130194595994816 18.051765900874635
152 1 1 14.572452917620236 14.589616149256535 17.015750313987056
153 1 1 16.549426166776115 14.665445304543288 16.35122430374017
154 1 1 18.40988023972606 14.070123701598494 15.609752714847879
155 1 1 20.201458801568528 13.928762176309064 14.574246516188103
156 1 1 22.203687818853002 14.150690955486615 14.108719837682028
157 1 1 24.218642672455093 14.27785075332627 13.610493847754485
158 1 1 26.24836905047996 14.457883663229072 13.230709326142607
159 1 1 28.00973054538739 15.080235954801363 12.347454277378475
160 1 1 29.722010966632926 15.862434014104503 11.497517554027008
161 1 1 1.6709385715537692 16.10819206988154 10.889446917609947
162 1 1 3.667043139606503 15.968882082158025 10.38681497024681
163 1 1 5.673220428706612 15.565579790263115 10.040135720764699
164 1 1 7.640744136054514 14.91704512036001 9.875673287432013
165 1 1 9.25357776679894 13.6000897410779 9.769178025095052
166 1 1 10.090230924530326 11.708632850165287 10.0052172757566
167 1 1 11.404571589131775 10.19686418273963 10.52463037265346
168 1 1 11.730019964093744 8.6747023088496 11.87915843688356
169 1 1 12.016554040591817 7.271927928016918 13.366712734755787
170 1 1 11.932305263302109 6.175918003025141 15.11094669196629
171 1 1 11.897297431517696 6.361496995932302 17.16461131629813
172 1 1 10.629517420749448 6.487775521883844 18.789774353022846
173 1 1 8.95413189060473 6.79791773409352 19.950136775277446
174 1 1 7.324262241290892 7.247800625961812 18.760589568942915
175 1 1 7.091288536848193 6.789119413052172 16.762032403211876
176 1 1 5.926509874927956 7.340066466698905 15.14894168830274
177 1 1 4.097814997847516 6.485575126581145 14.704700467191985
178 1 1 2.0574000648582564 6.174249937883866 14.756965916572506
179 1 1 0.04015389994664864 5.818448943816473 15.034763090909022
180 1 1 28.098696580446536 5.197406948109173 15.393217820245612
181 1 1 26.303872146081392 4.214770101482467 15.707372335185493
182 1 1 24.88509063941382 2.7179689272890606 15.90684219192528
183 1 1 24.660808469737866 0.6543655308181824 15.825000534183287
184 1 1 25.950764130239627 29.061569557797657 15.473741692500775
185 1 1 27.884678420806743 28.506489961927816 14.984441613233717
186 1 1 29.870056111639414 28.895445207438723 14.552470000599836
187 1 1 1.8306098243934767 29.350201608932284 14.087203226418016
188 1 1 3.608717194109875 0.36946145728822516 13.838261400778233
189 1 1 5.341319497951592 1.4654850707310265 13.63155653768526
190 1 1 7.277153279030745 2.1771998721687127 13.693304127999715
191 1 1 9.058500369461022 3.2195732375003496 13.591848079350886
192 1 1 10.578121678361718 4.617229146574028 13.65466994345589
193 1 1 9.48782569591339 5.782664245023568 14.967007595137414
194 1 1 9.789870279156085 7.395563873850925 16.227379724334366
195 1 1 9.966853990880523 9.302364161258858 15.470233682353966
196 1 1 11.971491531277428 9.503488697108383 14.927186241413358
197 1 1 13.804244444252912 10.152762840171333 14.179768905714221
198 1 1 14.609990210984785 11.333566470074128 12.669361584552846
199 1 1 16.050093891725417 12.796163360706199 12.423615461341216
