ITEM: TIMESTEP
142
ITEM: NUMBER OF ATOMS
200
ITEM: BOX BOUNDS pp pp pp
0 30.0
0 30.0
0 30.0
ITEM: ATOMS id mol type x y z
0 0 0 6.0985039495236375 12.672785029583936 1.1963075894329278
1 0 0 4.9567812224735235 13.848585153348607 1.9062605703862296
2 0 0 4.616922305803208 14.953626884708767 3.269121025036285
3 0 0 4.213923564023882 15.955116418488874 4.696266204282519
4 0 0 4.317948629494133 16.448476899955132 6.413487712492503
5 0 0 4.218434461365677 17.24945234501514 8.009210270918423
6 0 0 3.5931217022869757 18.6388420871929 8.943035346952989
7 0 0 2.844955384803964 19.274707686065376 10.42920224868421
8 0 0 2.174729556158948 20.053524319715056 11.878599488759276
9 0 0 1.6142333794672372 20.81415714135446 13.385847286732865
10 0 0 1.3639906102181827 21.215558894838665 15.106505848380365
11 0 0 0.8959425304067217 21.67222814573663 16.773139562421758
12 0 0 0.648447933114636 22.12764411707554 18.49071721776972
13 0 0 0.3483830723465064 22.971395337801184 20.045603774557396
14 0 0 29.848717290331415 24.05048263329817 21.390171721370795
15 0 0 29.735051198442005 25.650147084678846 22.19726502233272
16 0 0 29.27060638149825 26.90242084301049 23.39810610737784
17 0 0 28.987236963082967 28.110353624318538 24.6989071915203
18 0 0 28.71146250994182 29.135786226594767 26.149384175595923
19 0 0 28.93903114051323 29.5530086875191 27.880595034544886
20 0 0 28.613056432847465 29.7993566229164 29.62640208210471
21 0 0 28.751966226149396 0.17538664131443824 1.372653793386263
22 0 0 28.487262982028078 0.39770144227090426 3.129798653972677
23 0 0 26.734635462414648 0.21210932753453235 3.4439762701478194
24 0 0 25.239588614182168 1.0705884432046424 2.9587165142206167
25 0 0 23.873150316071303 2.2259405775548533 2.8928301942487358
26 0 0 22.40442708298702 3.2481157052725345 2.994253530198536
27 0 0 20.718377638707214 3.814581668015324 2.7824517202960184
28 0 0 19.376438783258564 4.876261811121257 3.2949584406330716
29 0 0 18.056818243207527 5.274433517411828 4.434670749446686
30 0 0 16.599328541933847 5.64645889281952 5.405990273291594
31 0 0 15.06278479677935 5.955500843151646 6.2672010923055135
32 0 0 13.527420585476156 6.25096548609471 7.1278643866482545
33 0 0 12.157998878380079 6.433912811338015 8.256046900357086
34 0 0 10.961432344739011 6.812088779270912 9.528957441288538
35 0 0 9.728981505759537 6.993111188585902 10.811392607948218
36 0 0 8.842072710104324 7.210890046886194 12.348358289780107
37 0 0 8.048507148455489 7.621569981745355 13.892057516343085
38 0 0 7.939634275324375 9.3000080965934 14.472833616275791
39 0 0 6.979986589772878 10.285005200275624 15.601877832287832
40 0 0 7.014500024299924 9.154723991668735 16.984697026443495
41 0 0 8.158145254820623 9.812997177039975 18.18741468364266
42 0 0 9.893385739922659 10.04747803690302 18.558265697834702
43 0 0 11.654412433410398 9.888960545110312 18.84297194436281
44 0 0 13.287055826445624 9.764504566263843 19.569024222038088
45 0 0 14.717367818216301 8.992759857081115 18.819069725788783
46 0 0 16.41303505705533 9.009202775066884 18.248873207187486
47 0 0 18.14484754630884 8.593606860105538 18.082558411264632
48 0 0 18.681818737238597 10.29683503654593 17.9680477446447
49 0 0 19.583056111872203 11.739701097768272 17.407949332545705
50 0 0 20.422159838377407 13.3193517846273 17.5582283371948
51 0 0 21.0634631122293 14.83493372712619 16.84165753091929
52 0 0 21.59977599878629 16.05875921148615 15.640929381130112
53 0 0 21.95956005294453 16.71760120383259 14.010799822833098
54 0 0 22.41881935986426 16.541856437082323 12.287874434312473
55 0 0 22.92065795219989 15.968023807265807 10.666818950530546
56 0 0 23.282673770853275 15.22590048105673 9.075126919403255
57 0 0 23.500011780688805 14.190779971478145 7.623941652639724
58 0 0 24.007601304949755 13.100293802360254 6.287341480486524
59 0 0 24.16845181139079 12.8237343601422 4.52027969299376
60 0 0 24.088618024998645 13.343249402862485 2.8088281718480927
61 0 0 23.37733644810599 14.393048708350799 1.5509556390902277
62 0 0 23.33152487817508 15.773921171726812 0.42119717557431613
63 0 0 23.267260795026957 17.384371607056934 29.654793877329645
64 0 0 23.25475163016432 18.14089706528236 28.037432116564226
65 0 0 23.175390419303735 18.46859393692837 26.28131375590735
66 0 0 22.8562958837066 18.948396599907635 24.586393989016443
67 0 0 22.015937948722545 19.91399771501662 23.33579953705028
68 0 0 21.650089103377635 21.64559371141347 23.073240506212954
69 0 0 21.47296153706703 23.4225600912647 23.163278576682874
70 0 0 21.535197549742627 25.21239636273746 23.18183853756456
71 0 0 21.628246626114493 27.003266071165044 23.178503168139788
72 0 0 21.729103754228397 28.782384138723348 22.968781569377125
73 0 0 22.026995966364524 0.3961344706235066 22.241037048196603
74 0 0 22.34590314735277 2.024130954790984 21.55138402371341
75 0 0 21.9750066376143 3.643354551224761 20.87179199288319
76 0 0 21.539222356292836 5.382966024076906 20.867886029418614
77 0 0 21.194824542693834 7.132543750155204 20.99229029551752
78 0 0 20.887058255286483 8.86476216230786 21.27754694882865
79 0 0 20.905429072715815 10.460117194661303 22.07655173046415
80 0 0 20.82208431261774 12.145454343799555 22.67020256636688
81 0 0 20.780545991094073 13.874852714621468 23.143306938494607
82 0 0 20.72427517487133 15.403205859439282 24.078051354597648
83 0 0 20.64733587833706 16.960587650032117 24.95926710214772
84 0 0 20.392006792772136 18.571126720586218 25.68979176813782
85 0 0 21.211744518252743 20.0928828308707 26.137587603552518
86 0 0 22.4231472049508 21.26343381301088 25.545674480621955
87 0 0 23.940893674328404 21.269128267030645 24.600440038840777
88 0 0 24.532942976633368 20.315644102007457 23.206782079208736
89 0 0 24.73039671196607 19.495598017186136 21.629414881617844
90 0 0 24.947390080052788 18.64840128843552 20.070453930586556
91 0 0 24.96820097796915 18.197208533163224 18.340041160658103
92 0 0 24.947558096495122 17.954291217427173 16.570218574360727
93 0 0 24.825235967044975 17.904586110877613 14.791478950843471
94 0 0 24.76345843621138 18.03894088890684 13.014842229354391
95 0 0 24.835936812589345 17.907398002363056 11.237395319235365
96 0 0 25.049021770213717 17.60063139084316 9.489935102016263
97 0 0 25.343213611651173 17.14722311783415 7.7829518741205215
98 0 0 25.639313880496108 16.69221636044808 6.073598779853408
99 0 0 25.935827667447043 16.23804921257258 4.364984381627954
100 1 1 27.181132022055163 26.803702085457992 28.80860387431338
101 1 1 25.738979606724556 26.768160908493495 27.335313585497506
102 1 1 25.161098700169823 27.39880417476795 25.423402994200526
103 1 1 25.08254919102996 28.274270263873838 23.561724256838005
104 1 1 26.176971552541477 29.381082316306017 22.260917690524824
105 1 1 27.785467513433797 0.27046758448923636 21.31381584287308
106 1 1 29.785266529447316 0.5316737113346234 21.87868618630408
107 1 1 1.5777619982430648 1.5662615037874439 21.5394328663206
108 1 1 3.244730334170044 2.4655862839361875 20.63741433060593
109 1 1 4.316889038949756 3.2139487409931555 18.98072535196086
110 1 1 4.514823154251508 3.850837254876914 17.00670420434436
111 1 1 5.313344406641126 4.037971469407423 15.12522642551497
112 1 1 6.0887865635261305 4.17964099943733 13.215006049604307
113 1 1 5.154927179503214 3.93712333638538 11.354113562129703
114 1 1 4.95265142896007 6.019112297643587 11.380784360083059
115 1 1 5.6741001684861425 7.682609833359613 10.337710119122109
116 1 1 5.761505008760946 8.7931982657351 12.074552584310887
117 1 1 7.191840827332489 10.31681097876183 12.28216451413814
118 1 1 9.079893160410402 10.680342439108147 13.134371686323627
119 1 1 10.056992791415388 12.420951926722871 12.562351200195591
120 1 1 11.08048421307317 13.951003204571405 13.544024608473837
121 1 1 12.148458716847438 15.39610845291153 14.580059724643812
122 1 1 12.729050423716316 16.656381878077923 16.096579701726085
123 1 1 14.094911410847262 17.526532601207336 17.38870275727996
124 1 1 14.49726186938861 17.237990465807783 19.41509989633622
125 1 1 14.913445248386138 17.79366615744444 21.392335046935667
126 1 1 16.047043116755752 16.882102954567653 22.883958500995316
127 1 1 16.493341030874802 18.863843687747863 23.303866055177913
128 1 1 18.17773749255108 18.151128719705792 22.325359906480067
129 1 1 19.409957675083888 16.842749030617 21.270412261702926
130 1 1 18.77585072407301 15.01693068023342 20.4952575693247
131 1 1 17.532637331686487 13.657083360569128 19.566761164608945
132 1 1 15.763042448190706 12.655647954620306 19.237603860583143
133 1 1 14.75301245355113 11.403394696052075 17.94339541105598
134 1 1 13.052197050168537 11.87125534583757 16.86844956599475
135 1 1 11.136343463114423 12.143130060910732 16.142608254178334
136 1 1 9.318226890472431 12.269997954670401 15.141124229675123
137 1 1 7.720398996583714 12.490673887291468 13.816930216059662
138 1 1 7.2867216250974325 12.95529573877729 11.846447069275742
139 1 1 6.531604181516423 12.123739267769162 10.112470613215228
140 1 1 6.303510674358944 12.958451149344908 8.232777958632079
141 1 1 6.613502355185316 13.252476934376935 6.211329263908945
142 1 1 6.99527915543683 13.400989603703731 4.184753873194394
143 1 1 7.956666839552293 13.710315848257103 2.378434329032192
144 1 1 9.01448025640212 13.926463297151145 0.6114710218389386
145 1 1 9.67101500897692 14.349181899759184 28.699763668501763
146 1 1 10.418079418195168 14.716568552110322 26.81384440593897
147 1 1 11.139172090863148 15.067519841467567 24.912115993248058
148 1 1 11.154712410936611 15.766285865906191 22.964216408350964
149 1 1 10.49427348744842 16.3243183327298 21.088893278429918
150 1 1 12.008343521431364 15.620995611839424 19.874645571556208
151 1 1 12.815281694557608 15.04574171714234 18.074428595573753
152 1 1 14.643241350136664 14.627482356129104 17.23160918233161
153 1 1 16.56202797503977 14.644161499004042 16.48974529797631
154 1 1 18.443765954492612 14.211405546581481 15.776352971712893
155 1 1 20.137731072008688 13.945191946590615 14.623924717863066
156 1 1 22.135023490257662 14.170519667661699 14.107938015620508
157 1 1 24.165252085762027 14.289168130670967 13.667467296565677
158 1 1 26.222810297673856 14.384142443965187 13.300153036810183
159 1 1 28.014594275895995 14.9834181466239 12.410256117934624
160 1 1 29.651723430057977 15.804447707012036 11.443081306933395
161 1 1 1.5994312589805701 16.098853167217644 10.797073744345624
162 1 1 3.6019438065105454 15.914991803147323 10.30139478850604
163 1 1 5.605047557339955 15.46461832933263 10.039616435417615
164 1 1 7.467539599152463 14.548150995860633 9.860353752319273
165 1 1 9.285479821961319 13.558855841295346 9.625659448625179
166 1 1 9.891423200237474 11.579993929394227 9.775272685074121
167 1 1 11.11111561020019 10.1050892060025 10.56707945554648
168 1 1 11.625081065382519 8.569552799189296 11.84376249457145
169 1 1 12.184165778026168 7.159779988815295 13.241766048186253
170 1 1 12.056679039995766 6.073797234839381 15.006649577310393
171 1 1 12.147188697788579 6.270844309108639 17.077042965345647
172 1 1 10.835277908153644 6.423724382427178 18.679554881496532
173 1 1 9.293575245136497 6.52185882783072 20.07303067994245
174 1 1 7.526259049882306 6.991206533190341 19.09166032752968
175 1 1 7.160522933220857 6.646175534228961 17.08108575914155
176 1 1 6.3008108266043665 7.436081221092644 15.37311466458991
177 1 1 4.6093263046627495 6.456606660420314 14.698460368555759
178 1 1 2.576775339434712 6.0802504482295285 14.700015103709148
179 1 1 0.5520906997534812 5.788238241053628 14.928428911679667
180 1 1 28.608254490425118 5.258111341912943 15.28810585765981
181 1 1 26.788076266498173 4.373454918466673 15.61919986095241
182 1 1 25.262634505904735 3.010864507169346 15.850370730423673
183 1 1 24.783864888293774 1.0044429175920195 15.824491702197045
184 1 1 25.89452304905259 29.28699240320202 15.491450372265728
185 1 1 27.797213387813557 28.619986037439258 15.005018815859835
186 1 1 29.78636389104799 28.966144586026882 14.548709169782729
187 1 1 1.7695374403601962 29.315030245283094 14.102437271189455
188 1 1 3.5095105939937996 0.3976234959158449 13.848817293142545
189 1 1 5.322495248530764 1.3790869134288093 13.682982683439015
190 1 1 7.294670061064673 1.9874046835596744 13.752518705841513
191 1 1 9.048162536009865 3.0836960489333225 13.676244472236244
192 1 1 10.474484025948255 4.592058583609472 13.704993954334133
193 1 1 9.41817575374041 5.634431315655252 15.15390402339993
194 1 1 9.978572753985143 7.252586226312714 16.299696477769555
195 1 1 10.119282465985702 9.171586538608322 15.548114242516379
196 1 1 12.092405808638958 9.355704276648096 14.945285285574474
197 1 1 13.866681377056986 10.002867866679207 14.054742616863559
198 1 1 14.499894407422431 11.281554519361642 12.556983745522306
199 1 1 16.006358499229414 12.690916748215766 12.403596087525575
