ITEM: TIMESTEP
145
ITEM: NUMBER OF ATOMS
200
ITEM: BOX BOUNDS pp pp pp
0 30.0
0 30.0
0 30.0
ITEM: ATOMS id mol type x y z
0 0 0 4.564069682741648 12.535522224366145 1.7445907727809318
1 0 0 4.148804693348067 14.126489704989497 2.4479347628144863
2 0 0 3.849248541526139 15.257877784603009 3.8016134950743177
3 0 0 3.8941311194841464 16.191711322127393 5.328112105970506
4 0 0 3.784847032265886 16.985880060359236 6.930362378229964
5 0 0 3.8450499884403206 17.8653802229479 8.48764615296801
6 0 0 3.160494442456809 19.228935403521294 9.413025722664809
7 0 0 2.554959550348758 20.016659787226743 10.890414703737804
8 0 0 2.1420142178743684 20.474790326881575 12.55936263023848
9 0 0 1.3947439064849128 21.20229631115047 14.002231472279117
10 0 0 0.9405988793209822 21.804039585564478 15.620348525955702
11 0 0 0.8212217314452066 22.25805082982922 17.3497824285953
12 0 0 0.5867310448903493 22.731583111304406 19.067671057528347
13 0 0 29.951879852565323 23.412992837060724 20.605631772817627
14 0 0 29.61551629245153 24.650610182103044 21.861631308382986
15 0 0 29.460048081947914 26.27529619414809 22.603394269727136
16 0 0 29.20937386350392 27.522626844269915 23.866926083344953
17 0 0 28.779050665815216 28.624766990438737 25.214015955586273
18 0 0 28.64221539677961 29.74628938728816 26.60570963103689
19 0 0 28.868443700251646 29.98986283194987 28.366772737169182
20 0 0 28.713710550621652 0.32639828738859156 0.1166903565717191
21 0 0 28.3978391376446 0.8149245885168418 1.8054059555861273
22 0 0 28.325470788178627 0.9546153190325142 3.585037691130731
23 0 0 26.53513719125226 0.975779198324538 3.6528672963030275
24 0 0 24.933734026772914 1.5431278364271177 3.077332457991024
25 0 0 23.529575425733295 2.6569182990762337 3.148284082080947
26 0 0 21.993307235363794 3.577365129631335 3.165973135190524
27 0 0 20.422397278248656 4.348885140169122 2.79583731914362
28 0 0 19.02291117630595 4.995214780598796 3.701215556401002
29 0 0 17.59117662855888 5.547899553569681 4.617062213146874
30 0 0 16.099274768429375 6.035299684775185 5.465429274305746
31 0 0 14.477719897821872 6.3549562028036455 6.135360437655217
32 0 0 12.90397105124278 6.48090425240373 6.963298971284306
33 0 0 11.76874854066862 6.670307496637596 8.326016776264396
34 0 0 10.386601074206931 6.836327229853845 9.446880331523195
35 0 0 9.266230780006728 6.581286055009819 10.81794054427282
36 0 0 8.682710317642861 7.0271062837092 12.450161567532898
37 0 0 8.758605830779333 8.156903797536236 13.836414310974268
38 0 0 8.02979488585624 9.491247276865142 14.77955982724895
39 0 0 6.7536239006708705 10.044361309887414 15.90699072104136
40 0 0 6.851395422099356 9.630308756933669 17.646949768772174
41 0 0 8.38368483123838 9.549493288744577 18.572849003734863
42 0 0 10.168878043996907 9.696313763811387 18.556248639664314
43 0 0 11.874316942023588 9.62230505439836 19.094496418538828
44 0 0 13.549122698497829 9.655884011106775 19.728738283071397
45 0 0 14.87160963009143 8.709858139774251 18.974753828974436
46 0 0 16.61378247543397 8.81802882741311 18.561210271425
47 0 0 18.258607641552118 8.559803625032407 17.895919842685217
48 0 0 18.360069860966977 10.335611438729389 18.01428643102214
49 0 0 19.750015363980985 11.434163873230016 17.853730669847476
50 0 0 20.199704609533402 13.070209287195732 17.32355395084313
51 0 0 21.09122536211839 14.581147931865525 17.032495460389878
52 0 0 21.610861489474964 15.954986600923311 16.017770008913715
53 0 0 22.237164474732147 16.631721351904773 14.483344295554877
54 0 0 22.714086171205814 16.71371090247286 12.756889851931884
55 0 0 22.964001844090074 16.020109021412235 11.123817130547346
56 0 0 23.31318093431905 15.352808799511678 9.500169772313033
57 0 0 23.95290212996939 14.428359623368552 8.108644242861672
58 0 0 24.124745262451906 13.376443729908557 6.675643243216928
59 0 0 24.769285035362923 12.787527450722456 5.118064603121685
60 0 0 24.62544780587453 13.130017125252014 3.370140978366556
61 0 0 23.946256356370675 13.83867957216425 1.8750771530960388
62 0 0 23.655379515537902 15.37236767375122 0.9927404911630128
63 0 0 23.46397668171656 16.85653472085639 29.998935385098893
64 0 0 23.501247960653192 17.883554130663764 28.5249742148896
65 0 0 23.183187418933997 18.653093362277072 26.933336546537475
66 0 0 23.15976529389426 19.119808235025392 25.20081166746989
67 0 0 22.193378189539906 20.11989633951803 24.070211316433138
68 0 0 21.94385618749823 21.857857492718082 23.734415625327873
69 0 0 21.79289453356749 23.611106666236832 23.4324174139922
70 0 0 21.797836901422485 25.39601681278488 23.49792013535794
71 0 0 21.86644830436314 27.1824834505882 23.495235090218397
72 0 0 22.15012445622252 28.940435702222242 23.296948864587755
73 0 0 22.466531150568173 0.6191316520715913 22.751983382485385
74 0 0 22.584963875945856 2.2072359645419763 21.928532207766356
75 0 0 22.61975188611045 3.798905377833024 21.10146750877234
76 0 0 22.089638216023417 5.5049978467204825 20.929459623171553
77 0 0 21.46953245307091 7.183597148822836 21.02928933014363
78 0 0 21.167916241656915 8.89513828134673 21.45107999401827
79 0 0 21.09744083207755 10.518132057621814 22.185786641323112
80 0 0 21.047322494711857 12.206843229234005 22.74697098520318
81 0 0 21.014375143147614 13.814857059369775 23.512383040918937
82 0 0 20.85965292473155 15.398778740290396 24.316994104771215
83 0 0 20.71197568427313 16.995152398641107 25.114866998395808
84 0 0 20.721472159874963 18.630501569731898 25.85915011364603
85 0 0 21.068213460776374 20.16499328750218 26.728216718224015
86 0 0 22.390998399504472 21.270463994967272 26.234943976901214
87 0 0 23.85811256878226 21.684466683945814 25.29103460281382
88 0 0 24.751889839143733 20.71527748371223 24.076743950769675
89 0 0 24.860172044796993 19.88117650664042 22.494538656330917
90 0 0 24.973772880093158 18.987206542203708 20.948909041582016
91 0 0 24.996725334343257 18.290606677988336 19.30426284210582
92 0 0 24.963116348206302 18.081794263240933 17.531052888663808
93 0 0 24.774366804587313 18.007574559652607 15.755020637842255
94 0 0 24.682665563932957 18.00558855991211 13.968662670864672
95 0 0 24.624365370176104 18.11958941644573 12.183938732460206
96 0 0 24.713601030562433 17.779885751539783 10.430432717590195
97 0 0 24.907147209223314 17.290877770757827 8.724246951877191
98 0 0 25.108838810174774 16.793443120867504 7.022849590254606
99 0 0 25.31241143838622 16.295419298629582 5.32165070863897
100 1 1 27.440549813736325 27.059287119971906 28.150113374745317
101 1 1 25.736520730960056 27.04763690681481 26.97155594390746
102 1 1 25.26849809912244 27.609152847350423 25.02409551906723
103 1 1 25.113999765780555 28.474336438883576 23.15825953623216
104 1 1 26.26789736415959 29.534128083706314 21.833972107129746
105 1 1 27.868214737294355 0.44868547587080937 20.884586875848974
106 1 1 29.877502207275853 0.9680340765387332 21.140301000595326
107 1 1 1.7293073300897162 1.7904165543674786 21.565261279411637
108 1 1 3.363848522215314 2.460913556930605 20.39696297702225
109 1 1 4.436785485690022 3.4887685726944038 18.849184334490428
110 1 1 4.612300486952456 3.7053284704759073 16.738085293543183
111 1 1 5.401347172947227 3.6582372144200175 14.83802267560418
112 1 1 6.0220026423011666 3.8881160082585238 12.909886404928015
113 1 1 5.132894829521419 4.3575013543905845 11.092845324582177
114 1 1 4.561603696846183 6.297881845925132 11.545836041584248
115 1 1 5.609565808192348 7.769668151480465 10.591183213583443
116 1 1 6.23178198780713 8.360791874599984 12.461029412508903
117 1 1 7.203552498401037 10.159436959819809 12.18981733169734
118 1 1 9.137896673322517 10.493143352896436 12.820833593623986
119 1 1 9.958246705129318 12.389335039716494 12.823975218006513
120 1 1 10.958158466747001 13.957129582697199 13.730392859837922
121 1 1 11.995247129205492 15.301971226638544 14.925627737673858
122 1 1 12.5803006838019 16.86259346216705 16.168912080419357
123 1 1 13.820854888406123 17.366627498812367 17.747016541415878
124 1 1 14.404510350205388 17.20772666278012 19.72272774573034
125 1 1 14.787108992870808 18.252644224105325 21.438543963285984
126 1 1 15.956159691054824 17.68678390285088 23.020545805762197
127 1 1 17.11937233397082 19.427679705231313 22.94777789594899
128 1 1 18.56052589778478 18.3219015470876 21.959237863015225
129 1 1 18.98093731961871 16.41201906035192 21.276339108063922
130 1 1 18.534800876928855 14.569609205524381 20.45823046799202
131 1 1 17.13261277095202 13.159941224178315 19.917885759767177
132 1 1 15.211824260495545 12.575494630831487 19.430193931465
133 1 1 14.406987355132637 11.327829906166915 17.967081991460535
134 1 1 12.720600211487321 11.886344418601189 16.9135010792805
135 1 1 10.95537955863811 12.094814285791362 15.875491843834135
136 1 1 9.059882194510141 12.432007563473856 15.116279151986658
137 1 1 7.5406938963015735 12.643494618278815 13.712558066141753
138 1 1 7.168618126498942 12.58425130746591 11.67184681180507
139 1 1 6.240809132197406 11.943131413919945 9.933572267334217
140 1 1 6.097830335912023 12.73994339651298 8.0209283422489
141 1 1 6.610801443417422 13.168900061255954 6.054618300019166
142 1 1 6.95503823787839 13.35649600120785 4.016750367943133
143 1 1 7.991967292918654 13.749243726435198 2.262901322233186
144 1 1 8.924873572047836 13.935123105932595 0.41454009016350246
145 1 1 9.410811492999791 14.400752290516373 28.447297338395828
146 1 1 9.967588669268894 14.836952697179697 26.500670960448446
147 1 1 10.827829576794068 15.106085877784194 24.639539516079267
148 1 1 10.579425112635263 15.845760799718704 22.731152799969774
149 1 1 10.235352039459423 16.424888642409044 20.781727535947237
150 1 1 11.849270157968336 15.473181771238208 19.8925532854751
151 1 1 12.795478760505013 14.84669359688641 18.154434934295136
152 1 1 14.74887381127298 14.690871357208911 17.524555770673768
153 1 1 16.622891838943332 14.587416760665434 16.70164851632866
154 1 1 18.533313310376986 14.418600021310992 15.96130522258718
155 1 1 20.12009403442377 14.004930536980789 14.705532286446806
156 1 1 22.093263135219132 14.118644816716131 14.061553249369986
157 1 1 24.155373957444578 14.302472506147637 13.771793175797088
158 1 1 26.186011045766712 14.36101916768002 13.293968106488437
159 1 1 28.01742812537865 14.899877950452375 12.48333514985178
160 1 1 29.62642587826469 15.616246529341497 11.412365574406525
161 1 1 1.496840708322552 16.000706969593445 10.678323403255613
162 1 1 3.4885408029961145 15.791503596117714 10.229155901109655
163 1 1 5.452325960984197 15.212517902560451 10.046672889646128
164 1 1 7.249977570476759 14.292476641458931 9.670766145758536
165 1 1 9.092029525567067 13.379031146146074 9.460069708338443
166 1 1 9.721530312976906 11.419014281729872 9.564192158001063
167 1 1 10.604108115664443 9.921584028924869 10.664461683085579
168 1 1 11.491664309221173 8.458100455355076 11.80101987380708
169 1 1 12.302705641229213 7.059798765225531 13.06687775106031
170 1 1 12.286906445266052 6.0554405726574805 14.86614191837305
171 1 1 12.481501778055481 6.087972536971881 16.924449694547427
172 1 1 11.14617974294418 6.2993672712206665 18.4985115055114
173 1 1 9.859616660931707 6.125320599877448 20.112282664903717
174 1 1 7.900467975311237 6.571703058942734 19.579493475920028
175 1 1 7.264959805686715 6.406781433646763 17.610838756300375
176 1 1 6.691013895156775 7.418975899476163 15.895948801875651
177 1 1 5.401983043458905 6.378156755762892 14.651930559737488
178 1 1 3.3700016424786705 5.9708147329624905 14.601887064087837
179 1 1 1.32038250829768 5.757796537389466 14.771189192685592
180 1 1 29.326382735625735 5.357909195214128 15.134076909671382
181 1 1 27.436740979533305 4.597193537422966 15.499810731309042
182 1 1 25.772874285575494 3.3992700344796694 15.77410479688592
183 1 1 24.98127772707199 1.4938573009558598 15.81841068504086
184 1 1 25.828361239531425 29.634210264207866 15.514957565337781
185 1 1 27.665279308633366 28.81430451815663 15.030567716653527
186 1 1 29.661796231460553 29.04869754617766 14.554263883697317
187 1 1 1.6665051559177544 29.303424937994524 14.117010359531113
188 1 1 3.3916926172196167 0.42682535928145127 13.87186649528559
189 1 1 5.303647884042117 1.2269433498034221 13.768556590745964
190 1 1 7.308636405592687 1.7313719188759968 13.827522052701216
191 1 1 9.01707003031292 2.8978351244100042 13.814503082847057
192 1 1 10.289396293191333 4.5359572643769654 13.795499452432326
193 1 1 9.328110256742066 5.398492817340051 15.419476981587904
194 1 1 10.148580798737374 7.053688415500463 16.34984682235065
195 1 1 10.36940061651868 8.992051209239296 15.708383993368038
196 1 1 12.306336738356626 9.143483284594488 14.95627814917323
197 1 1 13.960426747555283 9.775908847916718 13.863978743094831
198 1 1 14.3507786281341 11.203403708880286 12.393209543803135
199 1 1 15.939767207734747 12.535352547226335 12.367846657459246
