ITEM: TIMESTEP
151
ITEM: NUMBER OF ATOMS
200
ITEM: BOX BOUNDS pp pp pp
0 30.0
0 30.0
0 30.0
ITEM: ATOMS id mol type x y z
0 0 0 1.4122155255839213 13.1056054230346 3.08211834219081
1 0 0 2.3859840865540805 14.37694561188759 3.8747115658159053
2 0 0 2.756639001553037 15.639034830856598 5.085567353723642
3 0 0 2.8571925091587893 16.772810675348808 6.466613007206729
4 0 0 3.0463836153544452 17.91588414009266 7.834759895534757
5 0 0 2.662427616655545 19.254392457020607 8.966521746823226
6 0 0 2.4974971446395653 20.146362756288124 10.51363575687487
7 0 0 2.17857719884101 21.1267762617802 11.977424682324877
8 0 0 1.6243573848490072 21.6744357107329 13.587515607532152
9 0 0 1.1857278329631706 21.9925067227937 15.290093178367703
10 0 0 0.46655419155407357 22.744850514752603 16.742205843034775
11 0 0 0.4381403594291877 23.442212755689777 18.390382738826816
12 0 0 0.1281560936500038 23.869850912762697 20.101135367737786
13 0 0 29.49287006912614 24.424092433539542 21.67982310553304
14 0 0 29.2180874343955 26.002981714417658 22.470220592969937
15 0 0 28.91978163091389 27.237689173313296 23.722795897324353
16 0 0 28.691509711403725 28.646498617234688 24.792171988150425
17 0 0 28.755696328876535 29.91332193876942 26.047057514159363
18 0 0 28.560364289962745 0.5820768613745518 27.686687579207515
19 0 0 28.54170918811157 1.231885900659145 29.342942758004863
20 0 0 28.75207331845898 1.5839970907653973 1.0703325449277488
21 0 0 28.26014438886084 1.7626173195527626 2.765961667188511
22 0 0 27.67874924338234 2.112509410415813 4.410621141593588
23 0 0 26.00776427462945 2.583868646033191 4.0114636834806126
24 0 0 24.26569563682443 2.8465912889791216 3.7681636904482017
25 0 0 22.589796726270734 3.3289296168185443 3.42436362202697
26 0 0 21.14919732413121 4.3516892398843465 3.2346957796606404
27 0 0 19.722070049709128 5.323319422330661 3.6651869260731975
28 0 0 18.131794170849403 5.528038727245446 4.437933300762909
29 0 0 16.486025302392946 6.007605460928576 4.908236596595909
30 0 0 14.861630985142785 6.609331764507413 5.323014948693275
31 0 0 13.383256256762873 6.964456727761153 6.266080646665015
32 0 0 11.927961612657903 7.169356353097874 7.290872799057325
33 0 0 10.392343189572944 6.934661626661682 8.183969069876328
34 0 0 9.54966347027355 6.5663063537143 9.721166444054452
35 0 0 8.960104676619745 6.651435646350092 11.407962928158488
36 0 0 9.656090651938673 7.011596742789986 13.01357198389477
37 0 0 8.735771046156728 7.708628576721045 14.376957385374016
38 0 0 8.673442338937585 9.352577090512543 15.077856569267812
39 0 0 8.052343448389728 10.183700605241894 16.53695301101415
40 0 0 7.698523817668549 10.80243528525204 18.1793306471899
41 0 0 8.734175806681042 9.43323808683109 18.66648749508881
42 0 0 10.389554304383854 8.895614312596622 19.06422732079515
43 0 0 12.066097456692603 9.007345981662064 19.676505842353563
44 0 0 13.49214851121269 8.175562073756902 20.366821620108478
45 0 0 15.152179360142247 8.451445217476385 19.76389399789346
46 0 0 16.60117247235334 7.885913399917254 18.88512639280082
47 0 0 17.79728094603503 8.847286338179421 17.964512720099105
48 0 0 18.479395734753894 10.502003387244619 17.933655479345735
49 0 0 19.916659002155946 11.36879907505259 18.552342317339235
50 0 0 20.151189399525826 12.456953813072344 17.149492859619727
51 0 0 20.909758064318762 14.07494179654323 17.302294557138502
52 0 0 21.75822991264638 15.5496285065531 16.731997435421547
53 0 0 22.635519327739047 16.53084346856064 15.516728597419172
54 0 0 22.645432021331313 16.372434303576302 13.736941060192395
55 0 0 22.891439661407453 15.933992244373707 12.022635946710372
56 0 0 23.563175805073104 15.16490697386929 10.553831705815742
57 0 0 24.18036960558414 14.551400988594322 8.985259882995337
58 0 0 24.925827863579414 14.110657930205301 7.411654550714441
59 0 0 25.62675075163097 12.938252118656022 6.245001230776835
60 0 0 25.3466732875252 12.914481277023071 4.472963566760376
61 0 0 25.19635254004498 13.385699558067804 2.7453388244451724
62 0 0 24.45018040522426 14.61073968088137 1.6635129967441171
63 0 0 24.042431396404684 15.802820175712903 0.3818195690358404
64 0 0 23.57060927193847 17.151725691386282 29.295137768782723
65 0 0 23.657289607760305 18.506920905613136 28.12470469300075
66 0 0 23.515415141791877 19.558670140475567 26.68367912940834
67 0 0 22.725558816994862 20.584673212299172 25.45329538574482
68 0 0 22.406624659414806 22.159453284115703 24.685118785161254
69 0 0 22.385846398182245 23.919913364362685 24.40292679423666
70 0 0 22.406367910268333 25.680647027586755 24.101053836206965
71 0 0 22.625065093504315 27.450292426499306 23.94163809883934
72 0 0 22.859734091562526 29.217328503344447 23.774369445209807
73 0 0 23.074477996276958 0.9710070551490534 23.480486400647962
74 0 0 23.339804687181754 2.5663692014091684 22.722801143634573
75 0 0 23.45078780699269 4.137552306536914 21.89093755011844
76 0 0 23.002005397874562 5.752383902949269 21.288656878638026
77 0 0 22.323693595702387 7.398075651105368 21.3521739340689
78 0 0 21.889589145033728 9.033201595070482 21.912183467130248
79 0 0 21.56770530655527 10.762802408237958 22.20915991564444
80 0 0 21.43795932585588 12.175250217940983 23.299043099157068
81 0 0 21.25393217746381 13.783496177456419 24.05753612180423
82 0 0 21.13995884802348 15.428900538496904 24.746026266345087
83 0 0 21.104062769891055 17.061155951940908 25.472575811679086
84 0 0 20.97769371736972 18.561130446068635 26.439653985848683
85 0 0 21.271034159544207 20.11883485820599 27.272517818233954
86 0 0 22.32732920212583 21.453829370694727 27.8329750412507
87 0 0 23.917380231346932 21.945500188768033 27.169175903996152
88 0 0 24.886013415200278 21.697889332376583 25.685939994052283
89 0 0 25.088105811735716 20.647060348644494 24.253390326265215
90 0 0 25.109434310244417 19.65209799193872 22.766820696655913
91 0 0 25.004734003489165 18.82776498526868 21.18103233179704
92 0 0 24.866540954441607 18.425118211926634 19.44172742824326
93 0 0 24.696807040224705 18.207412411825473 17.674152695773724
94 0 0 24.671875814571465 18.29880484591494 15.889286111026522
95 0 0 24.666374778722087 18.573366934386172 14.124672229792644
96 0 0 24.435524749867547 18.429896397806182 12.362587100835032
97 0 0 24.27166155376847 17.867475013224453 10.67785280925467
98 0 0 24.119976079450623 17.27821432981734 8.994869173299266
99 0 0 23.958964508739076 16.51671681872828 7.380837192066821
100 1 1 27.812165543572668 27.55853438266592 26.773953738406224
101 1 1 25.852958064064758 27.630762072925965 26.14906109310737
102 1 1 25.49224704414816 28.129012272798974 24.199242461480726
103 1 1 25.362491032933274 28.92396593909871 22.323800044007385
104 1 1 26.630723685870837 29.870520330869848 20.98534805498407
105 1 1 28.33769526072507 0.8108835257802541 20.269907118735876
106 1 1 0.05762131604835939 1.9005114464809836 19.94213802752193
107 1 1 1.8274167804127348 2.080645497761442 20.956083398556416
108 1 1 3.4143341607949607 2.7500856052204936 19.881684045296556
109 1 1 4.383868509166953 3.576696535284842 18.29290052549355
110 1 1 5.097021126354628 3.36827583261742 16.382108058333326
111 1 1 5.460321844580742 3.341597855062071 14.376646993964897
112 1 1 5.500442254812725 3.4883765276384655 12.307599864497835
113 1 1 5.236367538958664 5.190643387799159 11.089274354777974
114 1 1 3.9743395898763993 6.660770399629712 11.761724767843688
115 1 1 5.497962727127909 8.001072535497066 11.376604469760531
116 1 1 6.954902661698465 7.441966008534702 12.75708813144034
117 1 1 7.449636798923234 9.38360850986645 12.13585521443145
118 1 1 8.885668716275342 10.843657302363662 12.650221005897059
119 1 1 10.115134312685246 12.487965216300509 13.03157021851627
120 1 1 10.823163227353657 14.08228816602305 14.113988281694448
121 1 1 11.554853544789674 15.306417945804112 15.588465052096051
122 1 1 12.485692768922936 16.905510608996483 16.485656296614014
123 1 1 13.110509057873028 16.988854638866123 18.441611138872613
124 1 1 14.116855458541224 17.515695698519902 20.1823762203213
125 1 1 14.820683865224433 18.85854749397989 21.60343292102133
126 1 1 16.20597356705629 19.902324726453028 22.740194981453048
127 1 1 18.133862695812777 19.494931190264374 22.035928968262105
128 1 1 18.922374544302823 17.769329441913943 21.22795244234493
129 1 1 17.821005818561314 16.0170579145121 21.258453462184303
130 1 1 17.725716243841777 14.044757018775023 20.62538528695257
131 1 1 16.31343237745518 12.546781935272138 20.66247508079873
132 1 1 14.511232777059977 12.33986033556052 19.702128430685164
133 1 1 13.644860246680093 11.611553782654337 17.980045717172285
134 1 1 11.899194199511754 11.799351893105953 16.863970605573464
135 1 1 10.271030848572707 11.97851410988254 15.567905219358247
136 1 1 8.363102774744068 12.734886937979114 15.188839108771932
137 1 1 7.497185815282709 12.961795266572256 13.316665966447253
138 1 1 6.627696194547837 12.170850230486735 11.620095856951483
139 1 1 5.938546665319628 11.941620266221857 9.680468059961946
140 1 1 5.89950127987846 12.130988914941696 7.606288407063098
141 1 1 6.449151829536514 12.848047314587498 5.73215787590754
142 1 1 7.141210318296073 13.385713911512747 3.844941734331913
143 1 1 7.99120727621314 13.694095560076336 1.9720366351766947
144 1 1 8.568739670206577 14.075940084733384 0.013871670658342826
145 1 1 8.921842553921277 14.492266687336544 28.017701775123086
146 1 1 9.14138067635492 14.978996889111244 26.020833151699637
147 1 1 9.976693208170177 15.282641860804466 24.14631357535479
148 1 1 9.460029323624045 15.925730773813035 22.24476085902468
149 1 1 9.919131442635743 16.48203384341165 20.30590461444757
150 1 1 11.438942866868357 15.203602258065589 19.7575676957211
151 1 1 12.918986193187884 14.447557253684042 18.54283146398343
152 1 1 14.889052034326397 14.806804194272114 18.010283469612123
153 1 1 16.782053366214615 14.488584325403444 17.21694044299929
154 1 1 18.587125263578443 14.7664628767706 16.223081510447297
155 1 1 20.11472051938684 14.199845738713222 14.919950566594961
156 1 1 22.02488080584017 14.030762332453628 14.114800152240857
157 1 1 24.06543061729501 14.221867739647697 13.863430343405586
158 1 1 26.043756911697457 14.375292330848325 13.338573283950563
159 1 1 27.910258301321196 14.730953163088623 12.577674820594984
160 1 1 29.545444719874236 15.241242118839141 11.434216050290638
161 1 1 1.2645496845970237 15.814764242400003 10.4331267668081
162 1 1 3.2982361049300963 15.532654026352327 10.123239541956119
163 1 1 5.196152056310723 14.721632479711749 9.909486830648373
164 1 1 7.074928064057271 14.192268246273548 9.212292289860319
165 1 1 8.659998059080108 12.858051034791846 9.077262243480686
166 1 1 9.526524780908705 10.995949138582844 9.340638065701862
167 1 1 10.265513892951411 9.145182510048718 9.949384168556303
168 1 1 11.185984516686407 8.291799681376911 11.604451813339061
169 1 1 12.342092505938624 6.992445733071557 12.727770562397193
170 1 1 12.829808787799516 6.182144663634884 14.573171614060472
171 1 1 12.97492513705256 5.742054753673032 16.584897035904124
172 1 1 12.049919996681032 5.793494842917286 18.436027533280896
173 1 1 10.83445725982524 5.430731256107098 20.076917921282952
174 1 1 8.807234392590818 5.655643598021783 20.440771548126015
175 1 1 7.5470350038119065 5.988140427275275 18.824394614829785
176 1 1 7.03572405896263 6.720200349339876 16.947258152011187
177 1 1 6.824023804988029 6.05774674799081 14.992377752107634
178 1 1 4.835452376437775 5.841227186285655 14.462825949043848
179 1 1 2.792023342815912 5.6132954662508245 14.545145973544503
180 1 1 0.7668686249479121 5.434126780183078 14.80692472801424
181 1 1 28.81944971135171 4.954540572012643 15.217654887719664
182 1 1 27.009072273325312 4.076673148622211 15.570734699721607
183 1 1 25.640494208266002 2.5663577257222765 15.755809946822552
184 1 1 25.774361066295075 0.5173414751815675 15.553176388460166
185 1 1 27.400160800110605 29.333751314741082 15.069033283556227
186 1 1 29.40686566623183 29.203691679469543 14.605549902855252
187 1 1 1.40328602584256 29.42798978418058 14.142896809201757
188 1 1 3.2156860456615637 0.38987797328837964 13.929784422662909
189 1 1 5.273701470579683 0.6015446313366546 13.908254073834303
190 1 1 7.224803378000671 1.2959948651761182 13.949860509641264
191 1 1 8.86836648043785 2.5572090913474903 14.10796303511419
192 1 1 9.878959378390588 4.370607058348285 14.028053403692677
193 1 1 9.208167347813125 4.926194876841661 15.906402989191244
194 1 1 10.25595904668216 6.702111644680152 16.056535002014574
195 1 1 10.968680457233084 8.650446583598864 16.016440094811646
196 1 1 12.725393518465655 8.77774454168205 14.922147523136537
197 1 1 14.075305263840226 9.372258394095482 13.455977154621147
198 1 1 14.098593942509494 10.983167982493388 12.163306960182458
199 1 1 15.764830100577077 12.1940981577528 12.289826365214104
