ITEM: TIMESTEP
155
ITEM: NUMBER OF ATOMS
200
ITEM: BOX BOUNDS pp pp pp
0 30.0
0 30.0
0 30.0
ITEM: ATOMS id mol type x y z
0 0 0 29.68329063632087 13.95069785980509 4.17531718751564
1 0 0 0.9455051987522698 14.692290417994819 5.195028167863435
2 0 0 1.9435971583305842 15.792221573196766 6.180288963402814
3 0 0 2.310344039820079 17.25896238280434 7.123656567327773
4 0 0 2.107401381310872 18.646977346401236 8.22706137849186
5 0 0 2.08071169221565 19.849685077159723 9.549556364946314
6 0 0 2.022804469911669 20.84196408836827 11.03829867359972
7 0 0 1.7827646846911447 21.550261508723324 12.664609284395093
8 0 0 1.419322964421624 22.18384969973858 14.29688378354104
9 0 0 0.870250652236776 22.90386049147666 15.837775820640132
10 0 0 0.5715541292496183 23.364305654538285 17.537179695224193
11 0 0 0.022555124378506687 23.954973720203547 19.13241146897644
12 0 0 29.621566923849365 24.72114298593092 20.69896177299472
13 0 0 29.3183842785786 25.56551600657683 22.248751053530277
14 0 0 28.890938180859735 26.863781146836946 23.402952549129527
15 0 0 28.841590546997928 28.60171245141024 23.831572428468373
16 0 0 29.009438115854007 0.10293234076192613 24.79561171643008
17 0 0 28.598041272695664 0.33167222053570083 26.52546440168629
18 0 0 28.633803511947253 1.1869658538607328 28.096357367769
19 0 0 28.589988608983305 1.7697555578578015 29.780484282688136
20 0 0 28.36586746931132 2.257400413830188 1.476693219834068
21 0 0 28.392026547113616 2.531833216826008 3.237051459252379
22 0 0 27.158998191045228 2.9048669524771995 4.472553610328198
23 0 0 25.456675057980082 3.4393452279673236 4.537040683556185
24 0 0 23.77324375740394 3.87208345296465 4.1299750961993515
25 0 0 22.10154226606869 3.996348213611758 3.51372894946898
26 0 0 20.55273177858996 4.881700735304135 3.6143019996958996
27 0 0 19.099382006298843 5.570849221106399 4.389371644445014
28 0 0 17.450081301297992 6.188202952237942 4.688885779688461
29 0 0 15.71207591025443 6.4531390621155555 5.024064955508358
30 0 0 14.021134483464815 6.7943652084040025 5.509898431060839
31 0 0 12.645473286795559 7.3607720388618505 6.509532029003747
32 0 0 11.103601840411628 7.442457037216233 7.4221986222225205
33 0 0 9.678047535961435 6.762267685893781 8.270660831115528
34 0 0 9.150196054595098 6.683448481386559 9.982918478157623
35 0 0 9.535136388247944 6.161811393951688 11.654921466752029
36 0 0 9.548145300148503 6.65138259271315 13.3787947674826
37 0 0 8.85442852963751 7.9651790326510525 14.380312615844154
38 0 0 8.601434676528035 9.323469424394327 15.517983632778655
39 0 0 7.822205297305661 10.179362575735095 16.883294091366317
40 0 0 8.564469033250079 10.962143255425644 18.311069262974055
41 0 0 9.054555000207438 9.546946215230605 19.285587268774254
42 0 0 10.524527128080345 8.567909463802895 19.569565206860776
43 0 0 12.203731326607958 8.257998464873198 20.10446924102092
44 0 0 13.721656565689308 7.3997582520058796 20.49180670149572
45 0 0 15.40286127339531 7.981945429855979 20.337732201731402
46 0 0 16.507733862774455 7.731000517422122 18.956330660149398
47 0 0 17.281566255033052 9.207342286798703 18.31196634215814
48 0 0 18.657169462226705 10.293048901175377 17.965841198462257
49 0 0 19.824489869062532 11.326888019079645 18.83483130737913
50 0 0 20.210104623704655 12.156763812515647 17.296512670331197
51 0 0 20.908063775917356 13.783699173601866 17.53411520347
52 0 0 21.928958285045958 15.170962449545144 17.069332250480993
53 0 0 22.658410327873803 16.36762012948665 15.963633794818001
54 0 0 22.793282230225223 16.609513804964017 14.196967641047946
55 0 0 22.833261157853354 15.966834199517182 12.522244245367148
56 0 0 23.611665589364446 15.10315940501149 11.152294119019157
57 0 0 24.272490126396114 14.540276220471855 9.577767921760868
58 0 0 25.490722452320522 14.281494540037578 8.285991146998713
59 0 0 25.9045924127714 13.30577343003847 6.8462610168393
60 0 0 25.89323456977973 13.04842027303241 5.081089789886121
61 0 0 25.612073072978813 13.50213748388689 3.381817032935467
62 0 0 25.188047506825693 14.124118665726332 1.770465134196663
63 0 0 24.351153358784043 15.371844841731322 0.814762534946966
64 0 0 24.045371379868772 16.699803965342557 29.665597229660108
65 0 0 23.85102201236284 18.050592161992228 28.51618986392748
66 0 0 23.697718964937078 19.46412503520726 27.436028348963223
67 0 0 23.072015550096435 20.686249204770466 26.295279316495552
68 0 0 22.856877447034915 22.29774471648582 25.552535464097776
69 0 0 22.81690052293725 24.02012743029805 25.068719702152315
70 0 0 22.97031829901862 25.75907464070489 24.656940641394353
71 0 0 23.09756451121965 27.50497455415259 24.253941413730406
72 0 0 23.249501412351044 29.27405319398825 24.00341350376119
73 0 0 23.512709533016352 1.031833165667788 23.788622913198424
74 0 0 23.874713869405067 2.7026927111159478 23.266102982287276
75 0 0 23.793488511934843 4.310077056219268 22.49210789927768
76 0 0 23.563107326017757 5.884769151321988 21.683116370802143
77 0 0 22.99664965728105 7.57706716163173 21.79256834092321
78 0 0 22.416624644029522 9.273701483142055 21.87599811826632
79 0 0 21.936122576619475 10.797569138080592 22.701896973358078
80 0 0 21.54386022292567 12.364813173217643 23.490814312670512
81 0 0 21.479560271077396 13.955157232498731 24.319045041136484
82 0 0 21.385717419843452 15.532609227714214 25.163121155350705
83 0 0 21.244154166878218 17.088083923038678 26.03716028515883
84 0 0 21.222696758749024 18.70461289646851 26.799107710383364
85 0 0 21.192194518825445 20.046381713113732 27.9735671717802
86 0 0 22.27923608738392 21.371058307014483 28.463570908900177
87 0 0 23.914358495483793 22.040125439436235 28.23119929397361
88 0 0 25.107787873463803 22.203850440624223 26.916488644775455
89 0 0 25.24409032014607 21.34898334476279 25.359583429310522
90 0 0 25.178676088636625 20.113665698848695 24.0771920375692
91 0 0 25.01080877109316 19.482128563940872 22.411596514987053
92 0 0 24.81205853992572 18.78802953799794 20.76998812970464
93 0 0 24.70522180417789 18.4567365153127 19.012808163826087
94 0 0 24.713021681810627 18.69283286389488 17.24246796627828
95 0 0 24.582334015818358 18.686913963117398 15.464819365215938
96 0 0 24.43991127900884 18.85437469164926 13.693732738996333
97 0 0 23.968665850664152 18.36168527177963 12.038988815800005
98 0 0 23.4907188121746 17.673364591445818 10.453468524305547
99 0 0 23.027872218019713 16.950822505375793 8.878470646066965
100 1 1 27.933293853515227 27.759820907397764 26.091320187036732
101 1 1 25.96483534953063 27.999940572011152 25.557700453153025
102 1 1 25.639279968043905 28.547133898688465 23.627719455419342
103 1 1 25.591440322064233 29.226646953705604 21.729681748167952
104 1 1 26.9336363312296 0.08789511026378181 20.451088592625105
105 1 1 28.653066506483768 1.1074177802822034 19.898548216150342
106 1 1 0.14605455764172082 2.425271057690167 19.253308344338777
107 1 1 1.8040492281784475 2.2545507747026083 20.483396070472974
108 1 1 3.4144352663775974 3.032496603124752 19.50616345292881
109 1 1 4.433633226440634 3.4544317675571046 17.811482107420815
110 1 1 5.410376063312813 3.242580319447612 16.02703279719793
111 1 1 5.472681845175917 3.3034512436811583 13.980991618266676
112 1 1 5.046255243612195 3.5635221000304944 11.992402047326774
113 1 1 5.311133434361212 5.541419200399253 11.418294329965526
114 1 1 3.732367590041666 6.812816973344197 11.829423280260766
115 1 1 5.371904621211028 8.012550588017966 11.93408444355278
116 1 1 7.17441746813895 7.234527776434171 12.424416030814342
117 1 1 8.031839344737067 9.09825190041889 12.311884448756267
118 1 1 8.781523046260668 10.985706113237276 12.609561258766128
119 1 1 10.055593825022608 12.513546884131811 13.215084992985805
120 1 1 10.741158809873843 14.176920829548225 14.272902410863878
121 1 1 11.296975713340826 15.431071141891515 15.848709574752359
122 1 1 12.430101063103683 16.62734411796827 17.12181038691781
123 1 1 12.907681472422595 17.073382200124907 19.08044204032888
124 1 1 13.897656829286845 18.204659075598002 20.51002845443111
125 1 1 15.333072449973793 19.13753515257829 21.63532782904805
126 1 1 16.5867681291583 20.740298832685095 21.49848721150917
127 1 1 17.951373996998694 19.15501165078576 21.573673986627867
128 1 1 18.732845389106355 17.353302814425884 20.94061128404181
129 1 1 17.22807522722043 15.925512438873525 21.135151536215734
130 1 1 17.048533351195264 13.862933946472701 20.8736509377464
131 1 1 15.74498016735164 12.272888866304031 21.096203356571984
132 1 1 14.150756259160817 12.11158895791932 19.789071045128008
133 1 1 13.005673153196314 11.905422332419468 18.068608726037827
134 1 1 11.409564376280526 11.713765361010399 16.76208254779875
135 1 1 9.683285982807783 11.926378813614402 15.641129934895368
136 1 1 8.005063527875217 12.872860883811788 14.886674647458982
137 1 1 7.203515409198219 13.18437101743632 13.01232863096221
138 1 1 6.273914007785705 12.154113206537414 11.496214720389819
139 1 1 5.855433720925817 11.89681369465571 9.493261094812272
140 1 1 5.966432789959495 11.913334719007613 7.418751533983181
141 1 1 6.393546791506101 12.55185033565259 5.483312497743805
142 1 1 7.3305805115925615 13.30314211429695 3.786181818949126
143 1 1 7.843719467342736 13.684856274211004 1.815084812114418
144 1 1 8.246016313514305 14.144889621944678 29.844021682712093
145 1 1 8.505484893062553 14.574845870092894 27.84424869668748
146 1 1 8.734994064329475 14.99394319388239 25.837347903965117
147 1 1 9.202528188644234 15.431993300198915 23.879959479877495
148 1 1 8.846838990652644 15.954137912826159 21.917078460516986
149 1 1 9.7536451512113 16.395707407755594 20.10849667333643
150 1 1 11.208397046177975 15.032156511231786 19.51386992076164
151 1 1 13.040584916803311 14.223048003251623 18.96697155825434
152 1 1 14.929188111646303 14.741212230057306 18.28331937482362
153 1 1 16.87845039279562 14.56650040430967 17.581651912111838
154 1 1 18.532523536589345 14.867666250343962 16.35758452755241
155 1 1 20.116386948968874 14.401537783101475 15.09338913923574
156 1 1 21.947342202549525 13.900436897143193 14.246365203742121
157 1 1 23.993058717857735 14.073998538254026 13.890435893794
158 1 1 25.978845814519833 14.439176748655424 13.366967214295913
159 1 1 27.870085170809993 14.641144331104734 12.527718393859137
160 1 1 29.608444842847852 15.028068678839357 11.481971363936998
161 1 1 1.2245523318668747 15.57338747638268 10.321759827202646
162 1 1 3.2343306430694567 15.199867037455444 10.085358758896065
163 1 1 5.093854985193935 14.467851850744383 9.627944868982837
164 1 1 7.0366689214282365 14.092491511168694 9.039972576784969
165 1 1 8.17401446164221 12.349418684140867 8.897630159597545
166 1 1 9.358514002742107 10.694917017562389 9.369148858399079
167 1 1 10.315423997718048 8.83106486804579 9.43205739074751
168 1 1 11.170650575758408 8.160656971235989 11.214015702549732
169 1 1 12.169939943538449 7.121204306559598 12.700673227043835
170 1 1 13.116502803515644 6.210076847495071 14.30047671376148
171 1 1 13.097402988347499 5.627888736170159 16.28097802140699
172 1 1 12.641598398600339 5.346647383933702 18.269546709177718
173 1 1 11.366885775003512 5.076590928437642 19.86712541264076
174 1 1 9.505684344445912 5.055702362874076 20.729665493743973
175 1 1 7.898595896076869 5.7611232237654075 19.64745627989149
176 1 1 7.298731280935381 6.038774775740884 17.69724697484622
177 1 1 7.369758185054196 5.765984652546585 15.66543851032873
178 1 1 5.771687781464526 5.844056046155632 14.352078058628083
179 1 1 3.738143714785995 5.558871668041925 14.422634007876685
180 1 1 1.7041572895061552 5.435696369119735 14.603723814080322
181 1 1 29.714130725907538 5.1544131538189975 15.01151922217994
182 1 1 27.83198695217804 4.446431072072938 15.426016722259542
183 1 1 26.193609304806483 3.2298619600810152 15.68487033352689
184 1 1 25.82495631220522 1.2002407613348336 15.565154880477367
185 1 1 27.236095027401646 29.753342527600324 15.100554028924956
186 1 1 29.21684045674941 29.34004477479433 14.638066470697844
187 1 1 1.2234970521815114 29.607167418050608 14.17738117267673
188 1 1 3.189356818776433 0.2368876399209842 13.980195639230718
189 1 1 5.2513790556884254 0.055499369484736105 13.94994394436922
190 1 1 7.070664412252098 1.0404348818440743 14.044168565184478
191 1 1 8.675204765515787 2.3216529202749454 14.292358424931665
192 1 1 9.583933041512735 4.186806521908435 14.279937998054766
193 1 1 9.612021294346098 4.538071905632161 16.320143265168216
194 1 1 10.406670640623178 6.41714983341079 15.953392880315949
195 1 1 11.446651428382044 8.187278457014125 16.21339076343224
196 1 1 12.9415543558729 8.767390201545807 14.901879687388174
197 1 1 14.097481933463975 9.111507593095908 13.230497028571403
198 1 1 13.94257820137569 10.797534532068315 12.036420973723011
199 1 1 15.643925291923034 11.962391467648775 12.237817538163315
