ITEM: TIMESTEP
16
ITEM: NUMBER OF ATOMS
200
ITEM: BOX BOUNDS pp pp pp
0 30.0
0 30.0
0 30.0
ITEM: ATOMS id mol type x y z
0 0 0 16.80689102011511 9.16002095996116 14.699575342174525
1 0 0 13.693398312484302 10.12934394697549 17.376888752985504
2 0 0 11.662348910252016 11.792574556669972 18.72266032711907
3 0 0 8.925731247637389 12.89256126933386 20.07514549534607
4 0 0 5.655856051911512 13.236277841968057 21.24326613149269
5 0 0 2.575611657557277 12.80592179397541 22.60220951311303
6 0 0 0.9041006045598645 11.974058147208886 24.84874370204548
7 0 0 2.1939227773120455 11.952711618412055 27.962377283503823
8 0 0 4.786721022047118 12.787456963675973 1.4349812304153302
9 0 0 7.698781790574123 14.132778255613493 5.0228227297516
10 0 0 10.222994386765198 15.593987602397842 8.319365799685475
11 0 0 11.521208384651102 17.103262172911425 11.157362343364946
12 0 0 9.525431494827371 16.26100906687107 13.014840031699748
13 0 0 6.373221326266802 14.770953902071062 13.39418477951099
14 0 0 2.3572161918840924 13.82105271447496 13.902774576677347
15 0 0 28.341627936234477 13.942157614067236 15.00389075937938
16 0 0 25.386331006410526 15.169941962402401 16.830773934182783
17 0 0 24.400773624515956 16.64901418418948 19.14776149551522
18 0 0 27.85208159965444 18.47971919598351 20.72201327994272
19 0 0 2.4714382592044712 19.318580437495637 20.897163987321644
20 0 0 7.250791872638789 19.824684079191922 20.277458577253924
21 0 0 11.19792799665893 20.674476878908916 20.078224811897734
22 0 0 13.074155444472922 22.869227859608976 21.264115882122912
23 0 0 11.333221144019921 24.778979075779084 23.877674986563655
24 0 0 7.441599105810477 25.708646973859032 26.773790897893644
25 0 0 2.1329954811488294 25.205664334074953 0.16567097118779114
26 0 0 26.341035311205157 23.76668745728659 4.029931803411586
27 0 0 21.107925545574705 22.234546499134822 7.922969934087796
28 0 0 17.18746736014023 21.18114528226419 11.011455240861515
29 0 0 14.333058047764096 20.44077563647999 12.148078485917544
30 0 0 14.34955798684628 21.056685986408926 10.094332137437153
31 0 0 13.478581245495063 21.78180257112615 11.394663882057616
32 0 0 12.866617352336243 22.75649476267319 9.996166910197447
33 0 0 13.230337844341792 26.349142870072935 10.803917466245178
34 0 0 13.824884647249629 1.5543856365357818 11.909232339800804
35 0 0 14.877713218700329 7.65587728400825 13.119550717772613
36 0 0 16.034863255172194 14.232538191635706 14.5718241807042
37 0 0 15.649071911084675 19.69964474673055 16.489012905166227
38 0 0 14.162913828645578 21.635477584047422 15.809099804477077
39 0 0 12.363765761909947 21.68393710392938 14.612578452503177
40 0 0 11.861699086752802 19.215684116072154 13.131419971642343
41 0 0 11.68311270054575 16.902227346051415 13.36116689739097
42 0 0 10.234130587095022 15.006737258374075 14.207058555177127
43 0 0 11.005635444527915 13.135288473972347 14.792303463296761
44 0 0 13.643881712686877 13.311541940009281 15.8217546206399
45 0 0 16.436447247772747 12.60718061437166 15.525355424528174
46 0 0 17.865481507781176 11.819261304456457 16.70254195335633
47 0 0 16.55879501016207 14.076028699347818 16.023772697976728
48 0 0 16.523499842830613 15.90324329634789 13.735946392321624
49 0 0 18.50522449479199 17.655230388961698 14.138842764063845
50 0 0 18.376250601651876 18.665008411438567 15.858283916055509
51 0 0 16.392208096211487 18.330640776755637 16.57396392669403
52 0 0 13.546877218127495 14.879820074462565 16.214400938800598
53 0 0 15.18119762009475 13.387315907887912 15.920958224167197
54 0 0 16.01898255358659 15.570609359268081 15.47108206167473
55 0 0 15.804583277358379 17.107002848139835 15.836767861885612
56 0 0 16.554748132096176 17.223333114490632 14.514736699405223
57 0 0 17.484472838105436 14.715983625268654 13.980293694508804
58 0 0 17.66639626926915 12.652935787119958 12.622003770885971
59 0 0 17.107606550127773 12.939755894687556 14.093257499308422
60 0 0 15.770869331127598 12.299599310174795 12.12556192156976
61 0 0 14.802680278129198 11.648093153437927 9.561791678809362
62 0 0 14.547164696991953 11.245319504996944 5.462169905667079
63 0 0 14.881454867524269 11.207591475245582 0.07779593824566601
64 0 0 16.084361828264765 10.761855350181273 24.6168386504918
65 0 0 17.084653765332508 10.86156098723157 19.527747463518068
66 0 0 17.219734119814046 11.36848704403035 15.076072516049068
67 0 0 16.125513130065134 13.785190218715746 13.025771443328843
68 0 0 14.530572805419604 15.769268985801887 12.22007954972962
69 0 0 14.983434264341566 15.65026369918455 14.132481473555794
70 0 0 17.596874840170223 17.410910800020165 16.87655571928505
71 0 0 16.25752497809218 19.508348438835636 21.162204287580686
72 0 0 15.129557107294884 21.74010999322797 25.38315091554927
73 0 0 14.203611356643252 23.94251744447343 28.912128212363704
74 0 0 13.778491904879955 26.098786103783393 1.3113150545185037
75 0 0 14.228141052462648 28.477976225845943 1.7071317983360565
76 0 0 14.731185718868709 0.6995797527714877 0.7695368376616386
77 0 0 15.197138675061664 3.449252865098871 0.83518996490841
78 0 0 15.570123578199937 6.390042715905821 2.2244425558391296
79 0 0 15.708766759255301 9.472975567321665 4.063464026780438
80 0 0 15.499055792095076 12.920726998628387 5.175220755009265
81 0 0 14.95041829069628 16.568849485858763 4.3948429199491015
82 0 0 14.258643083665147 19.795561326424906 1.637363920280465
83 0 0 13.33660606588056 21.685528961618687 27.332426705769283
84 0 0 12.430254877253171 21.735976141479075 22.262730478397362
85 0 0 12.474012949653085 20.785488250013547 16.590441345539784
86 0 0 13.178396630713808 19.332769665530684 11.24728753030182
87 0 0 15.147683457089975 18.20561874082552 6.575972686669387
88 0 0 18.087456330109763 17.13928864086411 2.7860022432132383
89 0 0 21.508940831544706 16.053573173833897 0.0168750821499123
90 0 0 24.76995725701066 14.754608147953409 27.899212056575102
91 0 0 27.34489800144002 13.484565193574012 25.5959220645847
92 0 0 29.218637462293987 12.940919814957253 22.782572394747213
93 0 0 1.0236048200162369 13.184666446552725 20.107166774228354
94 0 0 3.323414063286275 13.898006221708357 18.344539435079163
95 0 0 5.849326446946244 14.507073402289354 17.930712600941106
96 0 0 7.877169925815491 14.549917447184951 18.88439289877225
97 0 0 9.84885487088 13.869187595745048 18.570891370361192
98 0 0 9.701827778815943 15.708371509866627 18.192191247355133
99 0 0 9.925203074407191 17.208907491748928 19.091983006256406
100 1 1 12.00911468893776 16.070446619456632 18.929746831600877
101 1 1 14.13019181621806 12.930740126597287 19.39413770333558
102 1 1 15.108032800150484 14.795160474641674 16.788606801028592
103 1 1 12.397108700237249 12.752062388791495 13.456934164432244
104 1 1 15.356930437449622 19.682446764517792 10.863591301021026
105 1 1 20.102408981281233 25.57413375229385 2.98492757305846
106 1 1 0.3959958472218152 3.6330382015442995 23.47077792735123
107 1 1 9.187802945988366 15.401627271286017 15.9517868473824
108 1 1 16.859448870228203 18.738394280701705 13.936117474935804
109 1 1 16.435483064549672 16.38865078660986 6.448521806643772
110 1 1 10.38720434223577 10.123176036621507 1.732089753410704
111 1 1 5.518930891301578 3.0424176110200043 7.373030259626357
112 1 1 9.326354469223826 28.29602614427698 12.88355396992355
113 1 1 5.268288187350207 4.871800655610026 7.5274084333125515
114 1 1 8.687233178739188 8.187205388066776 29.051363594231603
115 1 1 15.299414611755658 9.723912011994134 1.1056078988848157
116 1 1 12.150180368409492 11.510676419584716 3.9732126413565516
117 1 1 16.24483225562994 15.507027812404447 11.81312468676206
118 1 1 16.628222758595783 10.128786410116033 16.07370975781884
119 1 1 17.717199996328794 14.388338489394167 12.152185313995409
120 1 1 17.794922180605973 16.227039323313168 15.008922431705543
121 1 1 11.269674089530879 17.456900454722636 17.603513063613594
122 1 1 6.385327576060421 20.821118343177368 21.997165372989155
123 1 1 11.951359044090022 14.608419632923724 17.764380447631105
124 1 1 20.71011172398713 10.36009413323273 11.429420032322948
125 1 1 20.68849382200399 17.06377094217827 16.994795746669894
126 1 1 20.44005754679051 20.503505826510306 22.532501441792686
127 1 1 14.803926556557345 15.89984198764856 20.41486742916212
128 1 1 12.803912517273572 9.459144760403634 18.719330529378215
129 1 1 18.102694128106627 13.470159486867862 16.200793178458834
130 1 1 14.952432240995453 17.59112073856337 17.25752447095987
131 1 1 14.806116739699604 17.41891592693703 14.152501837207172
132 1 1 15.578471572029427 14.81135852911629 18.64448456476647
133 1 1 23.18300736533444 13.334525593906395 15.738179694631278
134 1 1 18.999155459357684 11.70051306826109 15.086757639023535
135 1 1 15.622786679784808 10.400932395788736 18.305749879085244
136 1 1 16.026306246865015 13.31641780164409 17.695320041109603
137 1 1 14.546527738303151 13.510364870875685 14.36962004071587
138 1 1 12.512444934411329 7.810426360812873 15.58742253673075
139 1 1 10.549284142609963 10.8701918464941 12.069241110997522
140 1 1 12.847066953224457 14.16729404298919 14.695615912069528
141 1 1 15.565553366771395 16.92888930629476 19.00736503568822
142 1 1 11.843465278618808 19.135845741868913 18.16044788698939
143 1 1 12.794689546041797 16.31127585511975 16.9366443113469
144 1 1 11.398878037952064 17.431073297648247 8.820635298617171
145 1 1 11.949225880626365 13.546514975534919 27.850093436644897
146 1 1 14.781754440901075 10.610585585998741 16.22869447733409
147 1 1 14.400981481382013 9.73912620063374 12.44631431125513
148 1 1 12.7859930748443 13.373063042694504 11.82157599273486
149 1 1 16.094655318169504 11.728480121694163 16.941531102256448
150 1 1 14.248431816565464 16.346634887461846 15.806316613348198
151 1 1 6.735630225187623 16.094366502906233 20.16528769171522
152 1 1 8.715337301823325 14.384979618508137 17.27940628530845
153 1 1 15.077078805524923 18.65537424812756 18.696419037594477
154 1 1 14.342708213045075 14.059961567866742 12.639616857438629
155 1 1 11.750214564067582 14.428438175307896 13.365760491783636
156 1 1 18.131843169439335 13.690288592537733 19.412640845621535
157 1 1 16.91989652462908 10.311396051581305 11.439148634972476
158 1 1 14.911094349408335 1.9289966943254913 3.84628095557625
159 1 1 21.43633617418786 1.3575763471997888 8.462046105395858
160 1 1 1.0954716473810548 8.943627109798145 11.704246088760366
161 1 1 10.301622714667994 18.007539668176932 14.163435207710005
162 1 1 12.867120780060816 21.631466406654166 18.68544561267595
163 1 1 12.954315734357172 18.084144407680956 15.218977126120512
164 1 1 17.25140450097611 15.332807516371208 18.525678683039846
165 1 1 12.71313774237425 15.982090556491883 15.052801324095736
166 1 1 19.005407527486764 14.114940282040058 13.44480853243709
167 1 1 22.444778346820293 14.290109453177854 11.271665537968365
168 1 1 16.11917249992227 10.365952103509324 13.520256177587422
169 1 1 14.266514655771223 12.194045813255524 16.784176569332203
170 1 1 12.955263090079896 11.319570853072081 11.727469615391392
171 1 1 13.640718699376247 15.402294231589783 10.441957568019488
172 1 1 11.668656173578357 21.020063824085813 13.047838546313068
173 1 1 5.042151736562864 20.940687942700407 19.241262407456972
174 1 1 25.428960565096926 17.982493129899424 19.517029885841833
175 1 1 16.36408480474351 16.38748704152667 17.4327622102969
176 1 1 12.035001259072192 13.416479985227966 16.261507263623624
177 1 1 12.682577991718441 9.677639196142898 14.987659112561976
178 1 1 15.38822688684284 11.803100825606167 14.27089751656578
179 1 1 18.11859937433242 7.478293613743943 13.54213449842371
180 1 1 18.10880156994674 28.619252151549844 18.403258865695143
181 1 1 13.394354077961621 18.948010574314008 19.133472934065693
182 1 1 12.361505012733558 16.043096862485 20.705126499886415
183 1 1 14.63315829945546 18.66279911440381 15.670856501906721
184 1 1 17.017314476292682 20.666125867931072 14.730592262915085
185 1 1 26.051809418990466 22.59498079240796 9.841278938910433
186 1 1 6.150005451197836 19.947273697001414 15.808624182550881
187 1 1 10.731832975294786 21.176307640698568 17.751011073079642
188 1 1 13.44746400844552 23.37320463546221 13.89093793130102
189 1 1 9.056918520023276 1.7544597101278 9.98085709925179
190 1 1 14.125098509696045 8.250306756171064 14.699550765916523
191 1 1 13.485064663560909 11.884569488163057 14.621514606234362
192 1 1 11.559299018428092 12.928735348916083 10.135150905404638
193 1 1 14.374683168549941 13.809018019641533 9.459101498998685
194 1 1 13.088302346584431 17.117676924199294 10.133819128127833
195 1 1 11.158178028898048 15.594083551955613 16.05509299204525
196 1 1 13.06510941544362 18.092643679765473 17.055551425931018
197 1 1 13.782105102528977 14.121453173669675 17.86313284594288
198 1 1 17.493089921033242 15.320885498185884 16.561506622862005
199 1 1 11.195677178538169 15.614749105358227 12.01339394657806
