ITEM: TIMESTEP
162
ITEM: NUMBER OF ATOMS
200
ITEM: BOX BOUNDS pp pp pp
0 30.0
0 30.0
0 30.0
ITEM: ATOMS id mol type x y z
0 0 0 27.46730579102108 15.886413648828324 6.437519371347888
1 0 0 28.62705534290228 15.892256235739985 7.803342365694357
2 0 0 0.1445720321954907 16.727570323539616 8.254230998776228
3 0 0 0.557022086175938 18.3709116751807 8.81644471452277
4 0 0 1.004424516555558 19.975500418273953 9.44891498128868
5 0 0 0.9392480294187551 20.83294579982267 11.00686319321
6 0 0 0.8306197070244475 21.485914944091018 12.660996655833946
7 0 0 0.6161068525241855 22.412040938724793 14.173990330930286
8 0 0 0.7453133622212337 23.366067908549873 15.682818337982527
9 0 0 0.7257640590304704 24.04411287996056 17.339338202734115
10 0 0 0.19639645646264703 24.7928395958679 18.87659456999342
11 0 0 29.6648070448168 25.226489299483738 20.530138773938233
12 0 0 28.999086044827294 26.61568195874571 21.439003097590795
13 0 0 28.814878016461478 28.3825553606299 21.658206251623987
14 0 0 29.770844431675663 29.536559992816187 22.640276122309245
15 0 0 29.76171908357465 1.0431265015831166 23.608071223392486
16 0 0 29.08715713611868 0.4723768168822989 25.15854005957021
17 0 0 29.09649806104813 1.3973397850575 26.684471279886306
18 0 0 28.634216638615417 1.6660057582220478 28.393579983125655
19 0 0 28.296899594901184 2.2727186060270697 0.052689745167075114
20 0 0 28.22969679332302 3.0223184709568867 1.6888911932928306
21 0 0 27.531523843311007 3.908535643229696 3.09074048686927
22 0 0 26.000010861452015 4.512258878362451 3.811222682435777
23 0 0 24.569135009480956 4.814722545648928 4.854363725658557
24 0 0 22.848337072261916 5.202542691748787 4.5186390096950815
25 0 0 21.178420315185374 5.860254713090042 4.54516972107023
26 0 0 19.431527048080273 5.814570609048395 4.945614590065136
27 0 0 17.69528867538678 6.243821929648905 4.841809278292804
28 0 0 16.003562713780088 6.670969633779353 5.247224294040469
29 0 0 14.412967035578136 7.314644614412885 5.752458816474917
30 0 0 12.723088943902022 7.634472607887879 6.2438637310257565
31 0 0 11.137958742378359 6.917685456549343 6.660467868860166
32 0 0 9.715077318961713 6.06856367392605 7.328774846817526
33 0 0 9.504594459248455 6.077011403908498 9.098004786096586
34 0 0 9.452214186641827 5.79408961647693 10.852808974953579
35 0 0 9.458315273322045 6.555036751122198 12.464185451825463
36 0 0 9.31935173969346 6.733302073207987 14.231862712072207
37 0 0 9.700652840817511 7.9679264142089155 15.460055911085824
38 0 0 8.13339814891445 7.868964893838978 16.30340212732179
39 0 0 7.7996152605967515 8.238394860011844 18.019246059237833
40 0 0 9.243513189784391 9.291400004455731 18.082671146111608
41 0 0 10.299123204643037 9.62161713729911 19.490362427944028
42 0 0 11.184839750008104 8.496175796873604 20.559045387604304
43 0 0 11.992388863243987 6.904701677336949 20.587755540936442
44 0 0 13.773415806624806 6.94401891499131 20.58704296454819
45 0 0 15.548181225401713 6.791867012967145 20.60557663618672
46 0 0 16.110769471629702 8.108780674986265 19.534654209661035
47 0 0 16.8756520419947 9.636700476363002 19.014045808073448
48 0 0 18.54097445729935 9.755639686622304 18.38849970879932
49 0 0 19.460636213871126 11.04191236794538 19.21472687698209
50 0 0 20.180931907271916 11.666261095554962 17.70130644145362
51 0 0 21.155693955109122 13.161386979751057 17.768996397002862
52 0 0 22.078923427929322 14.65995034218823 17.47902767674347
53 0 0 22.67046543833521 16.066380498676672 16.55827273828774
54 0 0 22.90553717224234 16.565974302130183 14.864986811966437
55 0 0 22.613848259001276 15.850825112110721 13.258370456473802
56 0 0 23.508654550685304 15.353951293023709 11.797931322644141
57 0 0 24.95651246283052 14.743291219446213 10.941766349170534
58 0 0 25.791144687631817 14.060825629379368 9.509032735118373
59 0 0 26.215481714810608 14.152760550907143 7.768842882755298
60 0 0 26.229349252559597 13.652573352686133 6.048563552657074
61 0 0 26.33148316499996 13.710225902211313 4.264211852155088
62 0 0 25.842109091036313 14.04068186508618 2.576991166407734
63 0 0 25.574731809306336 14.95264587710247 1.063250328010786
64 0 0 24.822625596679725 16.249166367229087 0.08928264657911233
65 0 0 24.23760260106877 17.671750380357302 29.183705398001585
66 0 0 24.023818077460355 19.173295032068108 28.243408032896106
67 0 0 23.750858803517946 20.832488121083475 27.647700835402382
68 0 0 23.62664909316773 22.51731091479415 27.068053076039995
69 0 0 23.821202945519342 24.186495722658304 26.450763266064587
70 0 0 23.821309751377157 25.8366886981261 25.7448480877952
71 0 0 23.639769662057933 27.52477069326067 25.155474629859107
72 0 0 23.72466530614572 29.251774833790712 24.66579661574438
73 0 0 24.06136712059494 0.9136816621838277 24.084491149003583
74 0 0 24.167261583934106 2.6691166323629214 23.753807561780594
75 0 0 24.285628270208203 4.448469065514981 23.627842991245345
76 0 0 24.221433896682107 6.200209050866822 23.292245483176313
77 0 0 24.067847345928122 7.844102293400519 22.61119947831296
78 0 0 23.45811880748296 9.519920058614325 22.719357741576648
79 0 0 22.698799492966426 11.033435275150238 23.28802910400863
80 0 0 22.18393886864969 12.624623595978564 23.911754864580153
81 0 0 21.792067068446862 14.108738260353112 24.81592836392176
82 0 0 21.742030619926087 15.631643744746471 25.735335357051223
83 0 0 21.521392092886277 17.05639406986883 26.787586268980586
84 0 0 21.18208338791736 18.440578197766 27.871644099354228
85 0 0 21.396278172297343 19.973557545800922 28.781559638528062
86 0 0 22.30855092508367 21.082751161409785 29.858568718941484
87 0 0 23.69473524453735 22.22405122317125 29.825124366764904
88 0 0 25.255644954452556 22.702607493769918 29.085181909495173
89 0 0 26.044875186228275 22.19904396358892 27.5595315769271
90 0 0 25.512500538083057 21.502119159374093 25.999496965565427
91 0 0 24.94258185085479 20.417389336985664 24.699365560776336
92 0 0 24.914453862358883 19.763029695612925 23.04110288876875
93 0 0 24.755647663640364 19.334904204894958 21.318736304124982
94 0 0 24.613827404980494 19.053279765441168 19.56419247450987
95 0 0 24.503471307310893 19.184724455472637 17.78648409257453
96 0 0 24.095228618988145 19.123222178518535 16.04381259637027
97 0 0 23.505316333230738 19.096061790304553 14.349063397030527
98 0 0 22.705190310284518 19.244915688775944 12.748425546349518
99 0 0 21.61020439734351 18.13500474479744 11.862178608716057
100 1 1 27.921764150389464 28.01526204983743 25.446605395702576
101 1 1 26.175461993922113 28.61895629035518 24.519664067054485
102 1 1 26.036931388244838 29.2713275335123 22.608560547434113
103 1 1 25.9513950280788 29.73039208564969 20.629979246779506
104 1 1 27.592661344153576 0.49355780343122635 19.598012953569025
105 1 1 29.145120772631156 1.775920715996726 19.100323329849065
106 1 1 0.38444420202116486 3.203440977112494 18.20129439562905
107 1 1 1.7945954791925391 2.6574579907212312 19.590099984599114
108 1 1 3.349451059742139 3.4985724767306006 18.557402286000723
109 1 1 4.6513630499352585 3.046535104917408 17.078972250116482
110 1 1 5.683070984498706 3.156472256535307 15.333862732478421
111 1 1 5.417975255139473 3.222907341645751 13.309223602466083
112 1 1 4.376742582051052 3.805434271095287 11.607799840599087
113 1 1 5.224622935494874 5.631488491288298 11.793997744559023
114 1 1 3.8393088371865014 7.152920757495934 11.967579774101495
115 1 1 5.4177561522297975 8.042406566554986 12.959543997843246
116 1 1 7.105563480281204 7.901285243189523 11.767879058674938
117 1 1 8.628696266703903 9.134899296871032 12.376608024801657
118 1 1 9.54085925494195 10.944620576373143 12.76152732366281
119 1 1 10.070384400494179 12.862124952762723 13.377108155185248
120 1 1 10.498004656140965 14.107977359052889 14.966416191992627
121 1 1 11.417182629222141 15.458541772716748 16.243552466330875
122 1 1 12.263281094526288 16.379568481932143 17.929591679995177
123 1 1 12.806777164179845 17.570864032947085 19.534555699768323
124 1 1 13.585049131380531 19.09406430390868 20.655182067614316
125 1 1 15.208860783561315 20.318505338552804 20.840196304639065
126 1 1 16.90191037877533 20.202243198996342 19.665006837183622
127 1 1 18.300550950982796 18.871483330315662 20.44274412823712
128 1 1 18.045503064982835 16.81114798478965 20.616411544375
129 1 1 16.443385791992547 15.527320250120104 20.852508734451327
130 1 1 15.615276505554903 13.720774702373614 21.382329944543727
131 1 1 14.494921637509817 11.993953664663143 21.370884074513732
132 1 1 13.497886272055258 11.759318700627922 19.587394813521055
133 1 1 11.853182172598526 11.909810017001336 18.36482970456435
134 1 1 10.507978372546688 11.812402289093072 16.798639717077343
135 1 1 8.706733107483611 12.349513196859338 15.900146055799485
136 1 1 7.450693392762015 12.80364179297156 14.298458601123313
137 1 1 6.27943379541491 13.3958625504655 12.687919764472639
138 1 1 5.778425608453524 12.496666819194818 10.891451773029695
139 1 1 5.201435432627716 11.606843967264364 9.109914919952434
140 1 1 5.936890605039517 11.859742090622152 7.200456075416335
141 1 1 6.675172897690852 12.135781004569319 5.297736924049591
142 1 1 7.320741612049678 12.916972537291628 3.4874045767222945
143 1 1 7.514050228589613 13.7078398988498 1.5787481412753246
144 1 1 7.569344973298496 14.22206359562375 29.579700557364262
145 1 1 7.829807222094303 14.654821714422914 27.579146735339467
146 1 1 8.015293167255685 15.12019694289457 25.573797188811376
147 1 1 7.636147917744689 15.595304720421142 23.594209761145496
148 1 1 8.213041627988495 15.914959625783728 21.62705461861131
149 1 1 9.548773636475758 15.709294809219609 20.053878680982567
150 1 1 11.039634136265546 14.288017609825754 19.90358755165662
151 1 1 13.034143635433773 14.67891835543793 19.560858039596926
152 1 1 14.971566132955425 14.42669027563335 18.894183384283853
153 1 1 16.754554445779977 14.858259429499714 17.933034347013326
154 1 1 18.406829613914276 14.736311909891246 16.67798406510164
155 1 1 20.183462318168353 14.6626760609632 15.590801523368365
156 1 1 21.91482477250311 13.976655835153029 14.684479095066028
157 1 1 23.850481149877005 13.845929123306062 13.959339473616259
158 1 1 25.754460658590546 14.35883158992581 13.322068371806532
159 1 1 27.625641604614493 14.574291726171126 12.452161897667626
160 1 1 29.511729327305027 14.717094446056498 11.588677897258775
161 1 1 1.1872893000028608 14.974853719242523 10.397059200418312
162 1 1 3.1353304279123884 14.446596247546939 9.879972630371935
163 1 1 5.063640552225266 14.19705961727415 9.09968577381943
164 1 1 7.0479598525035785 13.6897410002815 8.727106283986602
165 1 1 8.161278450738681 11.936792558261589 8.69139916884552
166 1 1 8.998568547745531 10.116223792163117 9.241834111499067
167 1 1 10.545651031493549 8.729823093398572 9.191331881011436
168 1 1 11.505113882256817 7.743884365852139 10.725195702526833
169 1 1 12.032456669209804 7.302854486991106 12.671326413011316
170 1 1 13.191521659917402 6.0785054296183905 13.851590369927761
171 1 1 13.423130150700107 5.098149457334588 15.651837962738524
172 1 1 13.4724944546195 4.582282203845887 17.665436202174774
173 1 1 12.145956477309642 4.517120845235323 19.262001815710814
174 1 1 10.673054389367746 4.281598752640591 20.716040035316023
175 1 1 8.794613946265 5.1411023516635925 20.579709850963955
176 1 1 8.03890247900862 4.86142474081341 18.67635817072394
177 1 1 7.193039479461095 5.656538439023192 16.957458712056557
178 1 1 7.4060938983714 5.768388701739583 14.909051887529088
179 1 1 5.411388340244338 5.6222455871814585 14.343112309588049
180 1 1 3.3342789894162115 5.399294589060635 14.370397775218892
181 1 1 1.261733399709463 5.353737019098311 14.620476926244313
182 1 1 29.271174746241385 4.974843633239308 15.115834136354682
183 1 1 27.364431845985706 4.230246297722005 15.50546553590772
184 1 1 26.20631167848392 2.503438935131538 15.530627873791355
185 1 1 27.122806811693348 0.6778367958799045 15.145380967215338
186 1 1 28.94721382874338 29.79451505504024 14.646202005264241
187 1 1 0.9993423795649458 0.022384018117432177 14.346583022765556
188 1 1 3.0158874361597774 29.61610336427802 14.110247989033091
189 1 1 5.060433691002351 29.407378935395503 14.017958270179331
190 1 1 6.715185586963088 0.6207588362234798 14.281048038407098
191 1 1 8.216504624908778 2.0141052465751774 14.609165729433995
192 1 1 9.232323688998724 3.566575614035213 15.533454404041512
193 1 1 11.091357453043237 3.7719104028777024 16.427577908323983
194 1 1 10.968736365367732 5.809867917900655 16.116942167100934
195 1 1 12.076956456840229 7.560140519194397 16.1373438432763
196 1 1 13.070832479508539 8.913958665169467 14.955344209278552
197 1 1 14.055155766647319 8.807216378480986 13.14259250706307
198 1 1 13.695703986650216 10.404644046738781 11.863698686796761
199 1 1 15.410743904630385 11.53244363141108 12.150514253056018
