ITEM: TIMESTEP
171
ITEM: NUMBER OF ATOMS
200
ITEM: BOX BOUNDS pp pp pp
0 30.0
0 30.0
0 30.0
ITEM: ATOMS id mol type x y z
0 0 0 25.70466778568899 19.280720246540234 9.71883842410207
1 0 0 25.851934513417557 17.772448938975504 10.664451508245788
2 0 0 27.490286886979764 18.39053099424548 11.04069480275146
3 0 0 28.55708697640428 19.829527409315002 11.002652625442343
4 0 0 29.455646465696415 21.294331923107663 11.50494223104995
5 0 0 29.25873543708786 21.977707655126427 13.148904552549107
6 0 0 29.459137061217714 22.940719831622516 14.655119231644054
7 0 0 29.604647423743085 23.823546612114033 16.226228172728856
8 0 0 29.73509446078133 24.546317035975168 17.885336890985453
9 0 0 29.69271382269849 25.309757604110704 19.527613396206966
10 0 0 29.49620916689182 26.50159970886085 20.867573454794314
11 0 0 29.20978144950076 28.198599194200845 21.388248243701213
12 0 0 29.094910169650817 29.960918488252286 21.713464164041643
13 0 0 29.700549568771724 1.5121325187696708 21.046511972556257
14 0 0 29.70862061250439 2.721848570927889 22.372238955797382
15 0 0 0.11591496968413989 2.432924588647158 24.099205212599916
16 0 0 29.966052166862045 2.5093956770026176 25.886688513797342
17 0 0 29.03744836114758 2.131277064858152 27.3725916646108
18 0 0 28.847086058622235 2.806967892383759 29.01671380708766
19 0 0 27.897193737182114 3.784704882843845 0.1734038563373297
20 0 0 26.440838058614055 4.30662621722042 1.075902816511975
21 0 0 25.255584154550064 4.934100724735654 2.25874635097944
22 0 0 23.833042006950055 5.871963969280362 2.7898945337278236
23 0 0 22.63904132896583 6.847599836069374 3.6983884101756437
24 0 0 21.60445677113946 7.057940775646298 5.150589380845457
25 0 0 19.886868959146952 7.08606724005228 5.683059090673279
26 0 0 18.148361449317616 7.450476344961527 5.963970088822188
27 0 0 16.436629557824485 7.758486285454728 6.40432993630401
28 0 0 14.676435958356441 7.466786162709605 6.56573542600333
29 0 0 12.885960694760957 7.395988606933986 6.511490129941953
30 0 0 11.117419278804775 7.273110716804716 6.775682761205256
31 0 0 10.268617979009669 5.795891112816072 7.326068350577783
32 0 0 9.741534998389954 4.987747876618969 8.83487690590201
33 0 0 10.210460138690598 5.168747663841391 10.554163175772095
34 0 0 9.5484282735909 6.244185660366429 11.819699448815532
35 0 0 9.26380417594897 7.14833774401951 13.332899025054644
36 0 0 9.757897508941449 8.4586817184106 14.437107709114015
37 0 0 8.751077840954464 8.138469567908002 15.879236496860631
38 0 0 8.931783149846407 8.72547291249332 17.558011770915734
39 0 0 9.22029891002685 7.239883429165967 18.519256590786377
40 0 0 10.465624257736641 7.224308806221333 19.808870413196647
41 0 0 11.822670849821337 8.29009939982018 19.333322253343244
42 0 0 12.314854744002641 8.32821051128213 21.05224778839252
43 0 0 12.10929558688217 6.576240215400855 21.346771033309945
44 0 0 13.67530659824521 6.227478515711019 20.55607070589068
45 0 0 15.237795588119656 6.772998132663172 19.879232409306756
46 0 0 15.447794966525978 8.066541962268968 21.09548251787167
47 0 0 16.443691999023383 9.095782457301972 20.025118970814688
48 0 0 17.955966412402496 9.322678139124706 19.102322164529276
49 0 0 19.124373644833884 10.626867720178872 19.4540748472877
50 0 0 20.46786702497851 11.503227631067015 18.67560841017396
51 0 0 21.406165802220446 12.850781946648443 17.98951936735148
52 0 0 22.445484664431333 14.288785777420564 17.882044294104297
53 0 0 22.79106088922376 15.886359473230184 17.17704851137304
54 0 0 22.948620520334885 16.840609904852112 15.680099545609187
55 0 0 23.54347921664658 16.88357564490989 14.000729570008506
56 0 0 24.032097378254786 16.25435369705149 12.401228689345235
57 0 0 24.060860778384384 15.434131124828069 10.809592720089903
58 0 0 25.643394941625118 14.754838987083955 10.297704491946265
59 0 0 26.057864397846135 14.076578723729373 8.689769229846858
60 0 0 25.897906827816886 14.244755148463486 6.913630537130847
61 0 0 26.37571211238146 14.188087276994693 5.191520890558708
62 0 0 26.920203012622878 14.747820960061489 3.591319951613706
63 0 0 26.438216426633833 15.14716515717349 1.9270047360841913
64 0 0 25.94539697187077 16.314369719354808 0.6741527726682206
65 0 0 25.422071653501312 17.750267190284987 29.75479815780377
66 0 0 24.94094051595614 19.44660941238749 29.502190208483597
67 0 0 24.566401807530443 21.169644142562408 29.253941559756772
68 0 0 24.26571696630843 22.87310535157942 28.811643533312274
69 0 0 24.13198927669549 24.5346473779304 28.149641033527995
70 0 0 24.234969560756475 26.153013554909723 27.373124018779972
71 0 0 24.455257547033295 27.75199733663269 26.581976085777477
72 0 0 23.781659360641836 29.10405273494767 25.61828577091988
73 0 0 24.03356854550979 0.8375961629876322 25.25660493720455
74 0 0 24.292197927042803 2.5836128528875784 24.966231964654106
75 0 0 24.68106061793104 4.296841943831514 24.613699570320794
76 0 0 24.811856869346748 6.08524092198496 24.554597594447745
77 0 0 24.67318541448198 7.81449018597785 25.00193240769063
78 0 0 24.512029741926884 9.540702854152673 24.546226374137145
79 0 0 24.046874505551706 11.235614159523765 24.19224588507459
80 0 0 23.494431687196034 12.877245985721986 24.653192679098375
81 0 0 22.64702061766322 14.128498958698422 25.60773700361299
82 0 0 21.90460760670586 15.45089814634581 26.547543777065638
83 0 0 21.526008483960023 16.805905267325162 27.64572265486306
84 0 0 21.547823079867932 18.13446189295669 28.844141257830554
85 0 0 22.058901249348995 19.369730675961193 0.03643962497366852
86 0 0 22.576752179083275 20.885626808829603 0.8398266499561989
87 0 0 23.452764677187762 22.10874180302641 1.8112943223664002
88 0 0 25.115714778173004 22.591876012989495 1.3680984492725838
89 0 0 26.44485825684026 22.798400858967867 0.19557244135065033
90 0 0 26.924579418339356 22.37899877559018 28.525892894703087
91 0 0 25.932621818627222 21.96236299784106 27.092400271139837
92 0 0 24.92703783279342 21.402633633545456 25.7131798759578
93 0 0 24.78931052019628 20.79542023127812 24.024261569447603
94 0 0 24.44900479329866 19.99258503442507 22.45380346184327
95 0 0 24.04004447703423 19.274261757973612 20.867447142637342
96 0 0 23.438389039190174 19.672303804036343 19.234255960718663
97 0 0 22.68360936841115 20.22464304766215 17.712508510080376
98 0 0 22.08163829519211 21.002709606879712 16.21984443834902
99 0 0 20.41478351956196 20.35526064557285 16.176397481357302
100 1 1 27.61179605097042 28.39020281534408 24.83456918937356
101 1 1 26.989071297465014 29.405385656438146 23.117452857275605
102 1 1 26.509719401915685 0.010456429160458322 21.191628848327266
103 1 1 26.575572550272653 0.46862960268907183 19.156264722238824
104 1 1 28.458258063459215 1.1937175733279766 18.77135068635701
105 1 1 29.475334107944963 2.6182144545752224 17.73219772905689
106 1 1 0.7632876715402831 4.046701867588233 17.019401653828083
107 1 1 1.836933199252153 3.321713475103353 18.63450421568438
108 1 1 3.274313709496069 3.7467077095914565 17.13533565880071
109 1 1 4.991354938260488 2.8495881064001156 16.354762692707737
110 1 1 5.253303750363709 3.0178516692196515 14.322769340025017
111 1 1 5.276507664672319 3.426093050796797 12.29222495477708
112 1 1 3.707767599191163 4.0767961678245825 11.139520408694999
113 1 1 4.9108319237421965 5.735656397433736 11.416417994348793
114 1 1 4.576353305186999 7.5472897889032105 12.27550115316169
115 1 1 6.361143155684019 7.936415197371038 13.262116015196291
116 1 1 6.765765005528319 9.593066566952336 12.075819744490992
117 1 1 8.796647657813775 9.996661021152892 12.167984620903265
118 1 1 10.296657796302492 10.970905194146697 13.189236687723316
119 1 1 10.40025879852763 12.817063654129441 14.116639566639597
120 1 1 10.71790055920874 14.182611225169092 15.6444454092226
121 1 1 11.561123620998238 15.276722866208901 17.20185428133472
122 1 1 12.0764893230588 17.177632520374257 17.901286155405547
123 1 1 12.849746722024346 18.468535972083753 19.331055319219306
124 1 1 14.016601793571493 20.014890558790437 20.00415203491297
125 1 1 15.280514097614697 20.65800534153962 18.53025498881632
126 1 1 16.15014722678339 18.87637922289116 19.09251092415714
127 1 1 17.77985793326487 17.619398886378818 18.876262831925608
128 1 1 16.52665019537057 16.655101032980163 20.196888381153855
129 1 1 16.18210679893936 15.13945610504224 21.536683892725033
130 1 1 14.458989974873088 14.010184119076087 21.641454160002123
131 1 1 13.240317638001024 12.380152338968907 21.20070395216083
132 1 1 12.27981612864303 11.558055222101489 19.536911709414913
133 1 1 10.536795018813098 11.65429810993625 18.410708607986145
134 1 1 8.959484793766384 12.34498609258872 17.249061098019585
135 1 1 7.657121219142269 12.878308363727177 15.723031047141564
136 1 1 6.55713106776528 12.790767341110346 13.96266761499482
137 1 1 5.389475549280542 12.910701462746617 12.255081703607598
138 1 1 5.1424785381339255 12.145536992262555 10.348425855905313
139 1 1 4.785040054887842 11.410843851976422 8.447749471327354
140 1 1 5.738432212863355 11.623707889852358 6.617715666410807
141 1 1 6.958617857881025 12.03015699880677 4.989163675832598
142 1 1 6.90074655055758 12.53563399624458 2.9798656811924435
143 1 1 6.930538642226884 13.404607931568584 1.103867200903996
144 1 1 7.002343634275383 14.217827274659193 29.21206079690587
145 1 1 6.864834526443913 14.831154863110976 27.250466899085016
146 1 1 6.560902678037447 15.321819649104645 25.25614946966897
147 1 1 6.3873666966845795 15.66718574765763 23.209991484985643
148 1 1 7.966034660850008 15.351472583670162 21.892537944618763
149 1 1 9.323338628396872 14.05514731992822 21.005615900190985
150 1 1 11.375345513906767 13.846879692894547 21.137820909267106
151 1 1 12.697977203882859 14.559977475575009 19.739135187798354
152 1 1 14.491904014904934 14.400930526199001 18.751585052602064
153 1 1 16.396315177675167 14.504876318363086 17.9999466291938
154 1 1 18.313350155030957 14.616870605754375 17.255848434905598
155 1 1 20.172511641181593 14.325344816295113 16.388675152841078
156 1 1 21.900471996203773 14.203734111508094 15.246666150072034
157 1 1 23.75623126719244 14.146791525542277 14.31431901783387
158 1 1 25.553775171906793 14.035891665499086 13.281066690690635
159 1 1 27.41009086221651 14.200188811396234 12.371155013274842
160 1 1 29.29761747042493 14.205540796909652 11.522896527132678
161 1 1 1.1726079851458153 13.740614458545874 10.771640390685391
162 1 1 2.8183096818315945 13.98015055480091 9.556264989374336
163 1 1 4.614788652570523 13.920224652636456 8.546791598292296
164 1 1 6.609516848431999 13.377124226188963 8.624265519346968
165 1 1 7.755740190466114 11.659846905488507 8.811940785963797
166 1 1 8.906254251885505 9.918591027039502 8.724491434963248
167 1 1 10.494645512921279 8.713034583247559 9.31766232198792
168 1 1 11.733615241445818 7.4432327811112815 10.389853173342463
169 1 1 12.491621060690594 6.6469763368534736 12.126883554305218
170 1 1 13.003285403127538 5.646876236892691 13.837945250318995
171 1 1 14.159401555717965 4.11844958632504 14.573585537724876
172 1 1 14.255888409203514 3.6727769384382314 16.596546243235007
173 1 1 13.122048243189989 3.633360715959277 18.349525692862738
174 1 1 12.056828189604513 3.690306589791448 20.125242094092187
175 1 1 10.176495060833485 3.941919827391912 20.95090347822776
176 1 1 8.877097671237712 4.0233284087761945 19.342205955691867
177 1 1 7.064901277271221 4.72282684919736 18.622727636426095
178 1 1 8.337224423146022 4.957803930671789 17.01346546668935
179 1 1 7.188293438358419 5.564485186169283 15.393020278828505
180 1 1 5.392059622344851 5.685189058023032 14.336762479093359
181 1 1 3.3245121517522938 5.385682035552558 14.286346868206293
182 1 1 1.2502543507986272 5.419503094864884 14.557862724651274
183 1 1 29.24947624608922 5.140724956845897 15.08925503586446
184 1 1 27.390418588317345 4.257065070196795 15.372206840018139
185 1 1 27.384080598526975 2.186610636794297 15.127848766100566
186 1 1 29.03381613935639 0.9827888847933541 14.705567327017945
187 1 1 0.826242207500702 29.91582427260955 14.556570263409453
188 1 1 2.730344455700372 29.08867808652251 14.403008319310551
189 1 1 4.766748400991078 29.49354781484239 14.304102874429402
190 1 1 6.445400579538133 0.6215846661968681 14.799130661338884
191 1 1 8.075257600428458 1.4525211331255599 15.788410394883554
192 1 1 9.852061998690491 1.8152225322061657 16.80472894855346
193 1 1 10.894313175367536 3.329649815903259 15.854208366917046
194 1 1 12.00286533865137 5.016288874916163 16.334463853214977
195 1 1 12.321496194352308 6.998184779539392 15.838211256728814
196 1 1 13.143566817726178 8.691042379395489 15.01451565199931
197 1 1 14.362824514317957 9.007776334567884 13.392022199812374
198 1 1 13.405193544146973 9.808740634284659 11.745058678763272
199 1 1 15.107888222131525 10.952613518527734 12.05111100624507
