ITEM: TIMESTEP
174
ITEM: NUMBER OF ATOMS
200
ITEM: BOX BOUNDS pp pp pp
0 30.0
0 30.0
0 30.0
ITEM: ATOMS id mol type x y z
0 0 0 24.91239245140978 20.306270237462247 10.82446545412226
1 0 0 25.012293300121854 18.63516960941651 11.455623287562789
2 0 0 26.703302079261313 18.914924522340662 11.986464827495269
3 0 0 27.95006592795126 20.201857872923206 11.898209105163597
4 0 0 28.734562747880577 21.72772400268085 12.408593022187752
5 0 0 28.953484640064737 22.67729583597577 13.901540227810454
6 0 0 29.126678623960704 23.395504662465378 15.51921422775984
7 0 0 29.119026373774098 24.289038585871147 17.057630674266036
8 0 0 29.23907079563705 24.975682558853862 18.698926518608634
9 0 0 29.37427660544392 25.83457863848444 20.258064857874597
10 0 0 29.062761397166117 27.380953885576993 21.092720928156194
11 0 0 29.31893321458807 29.113041538262777 21.424232650613185
12 0 0 29.4568938694823 0.8901382450402118 21.477513122596466
13 0 0 29.700810822208666 2.610630029226071 21.057467738776317
14 0 0 29.807444910454283 2.705872357445136 22.8439030294919
15 0 0 0.026511433613709882 3.4263653315920117 24.468800342309777
16 0 0 0.020500623942115923 3.231993725844588 26.250387256408008
17 0 0 29.21047782698766 2.7376639129293747 27.77261786321707
18 0 0 28.652296136879972 3.352271768630953 29.358918321188206
19 0 0 27.321771030770623 4.367678623199553 29.988126804273563
20 0 0 25.799509663356165 4.771420058420131 0.8219179532361841
21 0 0 24.350278266203542 5.208827836450796 1.752992970928418
22 0 0 23.06605564593349 6.323274231791647 2.2735040494808074
23 0 0 22.186448032979264 7.145057922537023 3.5915855407326043
24 0 0 21.015861084781633 7.509764945724628 4.897519712499244
25 0 0 19.42930399988535 7.732412578674691 5.698830147265943
26 0 0 17.860701346356816 7.780073742767374 6.560116045958671
27 0 0 16.137848289039738 8.11900932236549 6.913962829489133
28 0 0 14.367518489085462 7.860889261794791 6.83401197826806
29 0 0 12.633610323633608 7.409930206626999 6.8453676827485035
30 0 0 10.941492243580045 6.821872287548972 6.8826671203062215
31 0 0 10.0004861498435 5.601237291849694 7.7879776136626795
32 0 0 9.999595113735873 4.767583534324668 9.36748062344778
33 0 0 10.001238245629018 5.015624287812299 11.142029107944692
34 0 0 9.849096492193985 6.488562900119702 12.155485176891565
35 0 0 9.360249082689855 7.330593647941212 13.657951567986158
36 0 0 9.52072768172372 8.465309669547482 15.025030786816059
37 0 0 8.311925153684216 8.387341197946338 16.328579093334458
38 0 0 9.308500582631694 8.826942375388558 17.73753714924709
39 0 0 9.718575479495934 7.225382696763164 18.404464120584827
40 0 0 10.536246594879136 6.776159469420972 19.925672236666514
41 0 0 12.136312132553268 7.54160269551829 19.6862100817712
42 0 0 12.820153708562342 8.281093644674234 21.165035874468668
43 0 0 12.71886733821361 6.629843481338149 21.843624126915834
44 0 0 13.72375734902632 5.9503852075729196 20.530482708892038
45 0 0 15.02159961943792 6.957187109178381 19.828671043179146
46 0 0 15.183346928491872 7.854293177793588 21.36998214898181
47 0 0 16.39881580291527 8.788898062401234 20.44648463658493
48 0 0 17.759023795390707 9.366845669774657 19.438135810542622
49 0 0 19.18680091394862 10.431179704267405 19.228187689317846
50 0 0 20.487412364689064 11.661667119814568 19.08637483813186
51 0 0 21.61454521088025 12.896098177261363 18.4191380561394
52 0 0 22.666215727364253 14.304083782840591 18.043540431745196
53 0 0 22.847066958980392 15.968776554663064 17.40373509048985
54 0 0 23.17930860890269 16.881883154354764 15.89744263097007
55 0 0 24.1614330065184 16.888209504970686 14.398185955933114
56 0 0 23.916307155316915 16.726083249671273 12.632325229466714
57 0 0 23.869949305050373 15.746785198960275 11.139947092769594
58 0 0 25.396828825580837 15.110815674314736 10.473247597524981
59 0 0 25.75390011749083 14.15138694762139 9.007702126164256
60 0 0 26.09585192682624 14.294771198008382 7.254329124850423
61 0 0 26.33627026967209 14.603078953942733 5.501259448860024
62 0 0 27.143557454776662 14.725744352815942 3.9018214663786046
63 0 0 26.779011572430512 15.355094852058272 2.26279281854286
64 0 0 26.243218100435634 16.379461703731124 0.8963383978560987
65 0 0 25.81887892191226 17.903949196805694 0.06926410346808888
66 0 0 25.348042155513326 19.60695059134948 29.795032978345567
67 0 0 24.84911455582325 21.317448809204286 29.608679649817994
68 0 0 24.34756174755199 23.031656104775404 29.48277852611386
69 0 0 24.28741174204882 24.639700082712977 28.71475447901904
70 0 0 24.39532446298773 26.236237306266272 27.929835022442255
71 0 0 24.441149703073556 27.79090069721641 27.050068269015693
72 0 0 23.954067071478452 29.123077146866017 25.959720294372683
73 0 0 24.016326092685308 0.8979358951648037 25.725757985101858
74 0 0 24.390430949792183 2.606551371605948 25.331280781304542
75 0 0 24.747768343550902 4.332163618039569 25.018209492396235
76 0 0 24.900343310600576 6.112182768761056 25.01137436931563
77 0 0 24.834919575588767 7.806302666661318 25.573337976777296
78 0 0 24.739678792614473 9.559323584923893 25.227099604434546
79 0 0 24.452596679288586 11.293639985204385 24.887401463470933
80 0 0 23.995287718291483 13.027523558180839 24.894321019872258
81 0 0 22.857366354371987 13.979839925067175 25.897726264042856
82 0 0 22.113314259718663 15.323826205702456 26.81754713323358
83 0 0 21.634451630804104 16.6795734480581 27.890954205956135
84 0 0 21.83863777295938 17.945419669855188 29.151847302469662
85 0 0 22.203452531779412 19.288371966596507 0.2861420603356267
86 0 0 22.65484927230562 20.649704407950967 1.3562669282735405
87 0 0 23.368599770903778 21.964033689581772 2.330589169773442
88 0 0 25.025230970681854 22.501351180196927 1.9235461609235969
89 0 0 26.543839411128413 22.88823935942655 1.0587947334821595
90 0 0 27.070151633744057 22.651300684344935 29.365582338398596
91 0 0 26.509941737319075 22.28788141295598 27.70665573694351
92 0 0 25.27160420001954 22.031921829143407 26.44089824128493
93 0 0 24.64680999866748 21.177202177141282 25.000732707450865
94 0 0 24.287784772104697 20.336214577669242 23.47159544125077
95 0 0 23.962827936940503 19.497713726641678 21.936429423441446
96 0 0 23.147322486497828 19.964808959427184 20.422334382778228
97 0 0 22.49488861790273 20.556213323412116 18.869058075649214
98 0 0 21.846743598773454 21.460982934213654 17.470646331635013
99 0 0 20.096912527849167 21.13652188299376 17.637574927954983
100 1 1 27.39689842433888 28.63138169303546 24.499120037850723
101 1 1 27.35698777663013 29.586993472690516 22.668018022944317
102 1 1 26.698730597091497 0.2039728345942959 20.76894594289551
103 1 1 26.767691844585492 0.7028494963732287 18.75916330877701
104 1 1 28.69461037503625 1.4129738332565416 18.49675383402839
105 1 1 29.433000267243525 2.878951165270882 17.197911590838316
106 1 1 0.8692290672849529 4.288050194202082 16.728839607100294
107 1 1 2.0455963307535883 3.639326066601592 18.33023204886672
108 1 1 3.3547460161945857 3.724962407549241 16.74186090835144
109 1 1 5.105944993280747 2.847518981409975 16.12527740918942
110 1 1 4.970827172710515 2.8507612725387097 14.010523183183205
111 1 1 5.22210773135345 3.3885883830204118 11.946320237388797
112 1 1 3.5621475381644565 4.195820045959013 10.965995166852668
113 1 1 4.714279507687643 5.916580810197332 11.27188880732221
114 1 1 4.884800124725278 7.646906088938962 12.376612361068279
115 1 1 6.768228766716616 8.08890917189028 13.126021624133212
116 1 1 6.767191477117082 10.003300755449061 12.412512486625243
117 1 1 8.74948763302716 10.446538188341288 12.135473557562156
118 1 1 10.371346494019907 11.041500561735488 13.28628096661368
119 1 1 10.524301200433307 12.71902401250468 14.48589930926114
120 1 1 10.93319063881305 14.187034288710374 15.876302452921951
121 1 1 11.53496311348473 15.376449084430897 17.435964189254033
122 1 1 12.01273924368597 17.294723551099597 18.004569845484426
123 1 1 12.896910578467834 18.802376446545235 19.10503715418863
124 1 1 14.176876462078992 20.34057169628936 19.57654182964596
125 1 1 15.339091389397542 20.367749537597806 17.87753824281516
126 1 1 15.926826131218336 18.658106016011168 18.878341537178333
127 1 1 17.195693581273986 17.072130946382675 18.509230247579264
128 1 1 16.062151546605516 16.389375661846444 20.10263506335384
129 1 1 16.02073051706011 15.139256940104893 21.773764406720694
130 1 1 14.381798549001278 13.862483061322553 21.771366191831714
131 1 1 13.333899297944011 12.323325993185088 20.85487212402506
132 1 1 11.728092243410938 11.686230733417439 19.696679083144417
133 1 1 10.128800410548624 11.711995289013366 18.36833819713196
134 1 1 8.503121239210659 12.508874804619099 17.35446746232915
135 1 1 7.4009217896601935 12.857166680702283 15.628766720948082
136 1 1 6.2436719580709 12.88688923498323 13.916417501278417
137 1 1 5.305658640892935 12.573899817911526 12.111880210445117
138 1 1 4.865798008241796 11.91563874473903 10.211535146304955
139 1 1 4.665457377443513 11.251465158853517 8.26453846962324
140 1 1 5.71905273584572 11.539870846358449 6.50928610094218
141 1 1 6.870798601285653 11.992761006554497 4.862015760514681
142 1 1 6.770082173050571 12.514602077928274 2.8604946280636083
143 1 1 6.725394526532214 13.225925803817384 0.9021161282044919
144 1 1 6.852857322639632 14.186651961896041 29.063152715989002
145 1 1 6.464264314743075 14.918476903481281 27.156145216479683
146 1 1 6.057179366585621 15.342155629235457 25.16244955976061
147 1 1 6.200761370398335 15.669056618806676 23.1194822754052
148 1 1 7.852519358238628 15.028416556749086 22.049013324250378
149 1 1 9.260905368700762 13.614615329607835 21.459844274270715
150 1 1 11.19015667736343 14.31095117491433 21.164628730006832
151 1 1 12.566933001335348 14.3044481713974 19.607022950144742
152 1 1 14.357681206972869 14.61287433051871 18.631997420604247
153 1 1 16.31107929142279 14.238471012658309 18.073335496943066
154 1 1 18.236472487906305 14.48159587126932 17.332459241186204
155 1 1 20.173638108082528 14.194947489325504 16.599105770707514
156 1 1 21.87635518307697 14.21452132995639 15.369950388948432
157 1 1 23.76084976038311 14.377768563212618 14.465065490354215
158 1 1 25.464274101337622 14.095064693963604 13.301471203972167
159 1 1 27.27797581925556 13.887390535257595 12.336739547097434
160 1 1 29.208281018631727 13.871478877243332 11.609035107947893
161 1 1 1.034295324752677 13.47581214905745 10.746128042831167
162 1 1 2.6932230324502617 13.84545395173017 9.585663667490739
163 1 1 4.459235000488448 13.770514435483538 8.526317270631854
164 1 1 6.474795713330489 13.308117897431487 8.63709576144487
165 1 1 7.530928162812892 11.523122243117996 8.80071721146714
166 1 1 9.000827407799775 10.07361212571135 8.639862558834064
167 1 1 10.335882271325694 8.714284639539764 9.459189657519628
168 1 1 11.710843308452604 7.475667330314091 10.392892542066955
169 1 1 12.719547702993943 6.351825731128432 11.821789376188278
170 1 1 12.997571895220796 5.375827156426581 13.63095337780246
171 1 1 14.30136730812397 3.953098401697328 14.347974207532049
172 1 1 14.6218181265127 3.2181686366895312 16.25044116601531
173 1 1 13.541951591124024 3.3668943342013655 18.01246021973702
174 1 1 12.448796903433635 3.519512405434952 19.78360581110518
175 1 1 10.737877998910458 3.494659797124186 20.962573595204688
176 1 1 9.112263225151159 3.776217760035861 19.70399842735165
177 1 1 7.182275955997263 4.334687325800952 19.138248122301174
178 1 1 8.401087878106713 4.765829648686015 17.517738625293127
179 1 1 7.589023307010497 5.475531514630237 15.75360248277116
180 1 1 6.020724578221392 5.8958047425530475 14.477381594107161
181 1 1 4.007333774075521 5.499803742536654 14.243791102142243
182 1 1 1.949738338983562 5.467768442388348 14.41462084235422
183 1 1 29.912058130153287 5.404727579905125 14.754904259013005
184 1 1 28.01999347244657 4.754537459645279 15.268247590754765
185 1 1 27.7514938654008 2.7163388444701884 15.059517739912028
186 1 1 29.279705958500863 1.3629105061139468 14.79123131172906
187 1 1 0.7048762952172444 29.893189504975908 14.611248997555771
188 1 1 2.65232411421957 29.20999989639153 14.508875187552995
189 1 1 4.640676044520692 29.754112490095075 14.542745052972155
190 1 1 6.399141651903695 0.6363268067861574 15.140257566873588
191 1 1 8.131835942664754 0.9913455236549428 16.195916910883504
192 1 1 10.059581750768508 1.4267234193741583 16.755296418464226
193 1 1 10.55616356212131 3.2521712413948576 15.950456351262499
194 1 1 11.953349221537595 4.75150489775534 16.21088379666029
195 1 1 12.381192912426293 6.727530518790976 15.82834663314362
196 1 1 13.09064343732656 8.529997219023773 15.110956018467562
197 1 1 14.364830611600027 8.928877412138448 13.521750783377092
198 1 1 13.424418769160853 9.610262008337838 11.8003830715432
199 1 1 15.01615594931543 10.927202032526068 11.855416646312511
