ITEM: TIMESTEP
181
ITEM: NUMBER OF ATOMS
200
ITEM: BOX BOUNDS pp pp pp
0 30.0
0 30.0
0 30.0
ITEM: ATOMS id mol type x y z
0 0 0 22.802344795917232 22.59870106463226 13.325969383139554
1 0 0 23.46023516917865 20.939512359227503 13.35158110046086
2 0 0 24.962189515727527 20.19040259540797 13.965172595805099
3 0 0 26.305114903823057 21.348024788943967 14.23783969481619
4 0 0 27.256417326658134 22.668713314197845 14.996906510528387
5 0 0 27.95760267706603 24.015098741467288 15.953243658998042
6 0 0 28.215346288057752 24.65057234805895 17.608167383280016
7 0 0 28.231184697532505 25.480329944639347 19.191193598997508
8 0 0 28.229670869117058 26.52865476947383 20.638037207206718
9 0 0 28.781011227093533 28.192113734336207 20.999986027014614
10 0 0 0.3373702258533142 28.788618527260894 20.35214201960992
11 0 0 0.188982653087215 0.567058176501261 20.413433412219756
12 0 0 0.3554912662014741 2.306650208878234 20.776485788976114
13 0 0 29.992112144625715 2.849920833405932 22.436933772263615
14 0 0 0.11213718066901995 3.9762438784796132 23.816669176499083
15 0 0 29.795850194325514 4.844286699546918 25.342150218877098
16 0 0 29.494871173373262 4.831301994910305 27.101989441846204
17 0 0 29.255025471477854 4.9819583557185645 28.866235318458905
18 0 0 27.52181978881867 5.087922984700733 29.264445648598247
19 0 0 25.91490164186613 5.205054891997288 0.025495306269921063
20 0 0 24.24056036886893 5.821344659258717 0.05391916959020108
21 0 0 22.77375688643562 6.672450852504256 0.6100662861809881
22 0 0 21.672304970927602 6.964228856372746 1.981404209076598
23 0 0 20.39995545067239 7.662635689259972 3.0167714965772694
24 0 0 19.322569883398156 8.322182100412164 4.279606299157932
25 0 0 18.34966859343787 8.77497436685929 5.7174336110793895
26 0 0 17.170884150814945 9.018047321680621 7.056736419912799
27 0 0 15.494788754479675 8.546182325391412 7.488692866009564
28 0 0 13.736285659403114 8.376462911519228 7.748857390418199
29 0 0 12.410029840231205 7.198608124909277 7.552702597308271
30 0 0 11.251776313651082 5.8540741710794055 7.75421344354679
31 0 0 10.054326914772211 5.382559687832117 8.992118660573125
32 0 0 10.411367300887498 4.804466339614972 10.644686110511092
33 0 0 9.662308757759453 5.3700276750777824 12.160486456581932
34 0 0 10.042802104423107 6.608697749377459 13.387578249366253
35 0 0 9.902821074778265 7.884001826335916 14.630337664754025
36 0 0 8.466061806224777 8.062371436654551 15.673890708345326
37 0 0 8.270920800542601 8.94802882395798 17.209027875851046
38 0 0 9.843980364564306 8.888070135052436 18.063413639013365
39 0 0 10.455952744075626 7.218526789449469 18.237030752623497
40 0 0 10.64710076969238 6.011724223409507 19.539621690982393
41 0 0 12.095102427748904 6.743799443502681 20.284775612581292
42 0 0 12.539521129112716 7.4849799577769245 21.84610518873088
43 0 0 13.870508035179913 6.632538758753433 22.682342535987623
44 0 0 14.388939871168022 5.399760974022154 21.49476706884299
45 0 0 14.765126871191095 6.656768606298232 20.281622084287672
46 0 0 16.333673605316267 7.203922430743007 20.96033097728436
47 0 0 17.268773167734537 8.733471294199708 20.945809208144635
48 0 0 18.28578324915451 10.161749654273413 20.584037686136167
49 0 0 19.16311451946384 10.567271418370163 19.079080554821406
50 0 0 20.50508008634545 11.739942611988965 19.232920579775772
51 0 0 21.682123945231478 12.99698124365436 19.719176456331112
52 0 0 22.25133588138583 14.303089787701992 18.632741569108212
53 0 0 23.24444769035633 15.54733569661831 17.797327643324888
54 0 0 24.095936949740576 16.507453251903385 16.540060825936717
55 0 0 24.928008136589895 17.045276749827256 15.042879069763215
56 0 0 23.781477140489237 17.420024947319995 13.722330389910788
57 0 0 23.886194438314217 16.688278724678444 12.09699177292302
58 0 0 24.34965182288926 15.682365336726637 10.696691697882198
59 0 0 25.253613506981637 14.754489753165743 9.462883700829915
60 0 0 26.277385065613192 14.660414050776371 7.995143873100379
61 0 0 26.859475563687536 15.172282567094326 6.3806302249003615
62 0 0 27.10607973745639 14.902285011740576 4.62994044298548
63 0 0 27.355605485885626 15.903409686058508 3.1675589921906537
64 0 0 27.204701013232345 16.648597995798255 1.5446972309154126
65 0 0 26.7441379020197 18.29412738805617 1.016371332367092
66 0 0 26.156242441242124 19.918338156760942 0.5425781829772808
67 0 0 25.364603528020716 21.524274594387396 0.6370937167415492
68 0 0 24.679957629558125 23.17940214009618 0.5716328670588798
69 0 0 24.831354033920448 24.902663020817464 0.12288373128266002
70 0 0 24.543873724940827 26.336598533911708 29.10385610548158
71 0 0 24.30875398016307 27.736404067562315 28.027270510283927
72 0 0 24.294721666835404 29.27433974416434 27.125378677424838
73 0 0 24.358218971856033 0.9541601011984906 26.521181545536077
74 0 0 24.482001782779403 2.7078202360345984 26.19691039430232
75 0 0 24.831374893769944 4.458354521688711 26.092486773820628
76 0 0 25.087019340031123 6.199319313992711 26.39242813477245
77 0 0 25.268875462996313 7.973891932269981 26.49226307961112
78 0 0 25.318070814874915 9.749277377781947 26.70333782086737
79 0 0 25.17236736135477 11.530519745409867 26.66434592746763
80 0 0 24.931105231890133 13.033058205907558 25.73043036905954
81 0 0 23.583454108307727 13.968540638725122 26.42853028991249
82 0 0 22.715106140750347 15.020970453455028 27.572848933834955
83 0 0 22.17328756086685 16.305860270898332 28.68445367929473
84 0 0 22.284051193196614 17.767669536863806 29.7109472988015
85 0 0 22.700344829843672 18.907857493922204 1.031241670202662
86 0 0 22.974761870549866 20.16868000645072 2.2714491691342085
87 0 0 23.334870395903174 21.447835769036548 3.468095398071183
88 0 0 24.942651361021028 22.153899949455226 3.127084099581743
89 0 0 26.521887660237724 22.931270708262215 2.8304859960318773
90 0 0 27.138452379811504 23.29089230438742 1.2044999052848286
91 0 0 27.290783367827803 23.291159198207897 29.43681202904111
92 0 0 26.303758059602547 22.884793501068053 28.01245746373335
93 0 0 24.759562506911873 22.291312814701456 27.331072125485765
94 0 0 24.08020036685029 21.1918553322166 26.085409321688047
95 0 0 23.460149256940806 20.256570248969364 24.687389702158303
96 0 0 22.757877937306695 20.716460492492597 23.109102379170025
97 0 0 21.937103102069138 21.559955240050485 21.768141865288676
98 0 0 21.100102076496224 22.30189864044085 20.380114598942964
99 0 0 19.584136459362384 22.95915941111903 21.060141286022528
100 1 1 26.95799880542287 29.27752333062278 23.624316871736237
101 1 1 27.576236887662446 0.15364078687289268 21.854930238225002
102 1 1 27.354834608725795 0.6264329636328685 19.89182597321746
103 1 1 27.12366300056289 1.1906384475330813 17.91915240902734
104 1 1 29.12233432118569 1.8350808716836964 17.875960341859198
105 1 1 29.925365087492878 3.6312130771836664 17.23064859981862
106 1 1 1.3763771031447631 4.902039404939649 16.3933143452118
107 1 1 2.7237386599068905 4.293730063849835 17.774132127757223
108 1 1 3.5946966827584776 3.631368341816619 15.974870704591533
109 1 1 5.3986118961436595 2.810514274111168 15.286232997826646
110 1 1 4.540755256636251 2.6299721915026772 13.344179562091409
111 1 1 4.7865808348835195 3.201906676428029 11.335423946497414
112 1 1 3.5381934011787877 4.731546865317924 10.581063482518672
113 1 1 4.212250518894646 6.5564203945800745 11.250828595836287
114 1 1 5.723516033369619 7.50606738073542 12.314015211859793
115 1 1 7.447160905175505 8.572599479130494 12.660484778602749
116 1 1 7.15925575580414 10.547566680105497 13.30536010103454
117 1 1 8.68538515501704 11.507025685367429 12.3334705743581
118 1 1 10.33279391537338 11.447095828806905 13.573390802884084
119 1 1 10.92504643877432 12.499905837473783 15.27932127318919
120 1 1 11.332276580552636 14.139227479908834 16.493093921209233
121 1 1 11.340915751190778 15.973069073603373 17.395756656949466
122 1 1 12.026944284741953 17.630646350783646 18.3702983044338
123 1 1 13.028631462627017 19.449157213146695 18.354272341765437
124 1 1 14.33539360662795 21.096692616932884 18.200500964631285
125 1 1 15.075675839366422 19.722091847336422 16.86683401142309
126 1 1 15.602277955622133 18.281382415926313 18.259780633241245
127 1 1 15.776468173311084 16.21776301084575 18.146458124275306
128 1 1 15.577937435692489 15.810297731678611 20.1625445770554
129 1 1 14.953780099073919 14.868986058350455 21.900289263589197
130 1 1 14.174855561430832 13.007336370061545 21.362498563978107
131 1 1 12.94684413033576 11.802559506801853 20.211575971376686
132 1 1 10.982524893755482 12.419829955614546 20.049963569939887
133 1 1 9.34886243188324 12.410933876567055 18.748340796089423
134 1 1 7.92637525546878 12.54393780292812 17.22789398076633
135 1 1 6.7089031002606445 12.656471035027018 15.531067185008693
136 1 1 5.692183658592972 12.82432615376189 13.717144495411778
137 1 1 5.154172666737893 12.004019441221095 11.893108797546795
138 1 1 4.44346818230283 11.195676938540426 10.116445077157003
139 1 1 4.583577073824846 10.928373722230535 8.051250790040909
140 1 1 5.639704978985808 11.425548624240355 6.331322754690776
141 1 1 6.3523533909645 11.866290779080865 4.431406007668876
142 1 1 6.477661141929261 12.536453253449015 2.47200546432169
143 1 1 6.3941225877473595 13.018548219723996 0.466370695843736
144 1 1 6.187816118479263 14.012477588952414 28.67076458125491
145 1 1 5.556566174817232 14.923602188117227 26.91024324713191
146 1 1 5.199383438666023 15.389587822127206 24.917402883634953
147 1 1 6.2677077243775 15.278851845153426 23.141811173804342
148 1 1 7.772506570541987 13.927499744548244 22.603536884809152
149 1 1 9.821841962519219 13.984415341833605 22.21008471813794
150 1 1 10.499554566206816 14.74128734035121 20.399767822503705
151 1 1 12.42509321399344 14.622152872267954 19.60785900074679
152 1 1 14.08802197562394 14.094667060554174 18.4710759645379
153 1 1 15.998119874250987 13.449852811813496 18.00142198163379
154 1 1 17.965904657907338 13.726543932276577 17.498644728270325
155 1 1 19.82646782068556 14.13303842818631 16.716725439346455
156 1 1 21.744810418311463 14.377748085903779 15.964357648194023
157 1 1 23.406516981795615 14.427405243538642 14.697774266721913
158 1 1 25.19680272833448 14.189222309759577 13.61036804880395
159 1 1 26.89915305487817 13.473923789639674 12.600905148935484
160 1 1 28.706505960055228 12.889090024477301 11.700024281131215
161 1 1 0.492569687399884 13.25550271851722 10.70145789789208
162 1 1 2.3124549282491724 13.290202311214882 9.72194172578608
163 1 1 4.073689241165541 13.604604011058855 8.669213066349952
164 1 1 6.027658732004152 12.916990306619201 8.694979244636647
165 1 1 7.30734787415981 11.28609251054554 8.625088971133417
166 1 1 9.133934514165162 10.347292365028524 8.848341405359351
167 1 1 10.101754001230901 8.79783349494848 9.830541715757956
168 1 1 11.514784319060736 7.488798167595328 10.641143867007154
169 1 1 12.832998297836372 5.914953077673751 11.037843992870753
170 1 1 13.25739340879636 4.703499010738297 12.687529465278741
171 1 1 14.422432262568638 3.6674149275700176 14.069342773521436
172 1 1 15.246142424918528 2.356675329247435 15.432829095129604
173 1 1 14.445158775903245 2.756572911283007 17.29089104591651
174 1 1 13.180170861981372 2.9891744952887764 18.8978873091178
175 1 1 11.883865349079437 2.6176083919831603 20.466206685854523
176 1 1 9.941497873412832 3.0223958082498736 21.097493531723664
177 1 1 8.133076040765786 3.40797031632217 20.166159340975867
178 1 1 8.295433352408986 4.466606806431319 18.40106214396261
179 1 1 8.321235145714162 5.327719736554837 16.5374164164364
180 1 1 7.331486923666495 6.106927560563928 14.91707871703788
181 1 1 5.39368364968849 5.903501347412851 14.278720934764939
182 1 1 3.36317514034022 5.732454550728161 14.018445691318643
183 1 1 1.3933666261106623 6.089202117091425 13.5547216719143
184 1 1 29.7352105203539 5.5955249144439945 14.681591402151346
185 1 1 28.747313466407483 3.890235544589543 14.054712876810724
186 1 1 29.525241569766767 2.0611481423530678 14.58108240285267
187 1 1 0.5275326817041334 0.2639830328262766 14.767167416085702
188 1 1 2.533492950566696 29.810160029344825 14.779744878504482
189 1 1 4.419954980755795 0.40341205633726396 15.320869285523392
190 1 1 6.327340930535546 0.3320442274593322 16.08646153528261
191 1 1 8.238656820140294 0.06775980989852948 16.813257869118925
192 1 1 10.125408444966524 0.8231482807413637 16.41735328236851
193 1 1 10.026382471159012 2.896819082156687 16.40725549697643
194 1 1 11.547460658372007 4.19728942676558 15.849991589156534
195 1 1 12.548130327449098 5.9868107294242625 15.740515732945981
196 1 1 12.98180046655462 7.959891399108193 15.32012839162959
197 1 1 14.24405529671934 8.749682653402868 13.884545247613175
198 1 1 13.564277637269191 9.185007175352846 11.986456358286128
199 1 1 14.731848646491974 10.797721646688283 11.411115691578276
