ITEM: TIMESTEP
193
ITEM: NUMBER OF ATOMS
200
ITEM: BOX BOUNDS pp pp pp
0 30.0
0 30.0
0 30.0
ITEM: ATOMS id mol type x y z
0 0 0 19.673230047017572 25.640933010917536 17.348609774231765
1 0 0 21.367839459953288 25.089612467397025 17.476907967781145
2 0 0 22.89603118943891 24.172731019020198 17.43104046421002
3 0 0 23.68266987401208 24.41851963261864 19.003886306394325
4 0 0 24.37406407104502 24.965626567154537 20.536301295191798
5 0 0 25.211233624401142 26.257860166321223 21.411206690955783
6 0 0 26.574007399455944 27.34945557530416 21.719796418543293
7 0 0 28.111108222183187 28.101077007477624 21.239156627421035
8 0 0 29.603576083921148 28.287361778616365 20.281505584503158
9 0 0 0.6666429482825295 29.613876700314123 19.71612085411648
10 0 0 1.1863563563739574 1.277890135542979 20.13085007788274
11 0 0 1.2462571983202304 2.09052298550739 21.728381911685805
12 0 0 1.127593740751092 2.2893469948913356 23.506623501575437
13 0 0 0.4607649900774929 3.85209505363418 24.091609851171647
14 0 0 0.20733021863567996 4.329296709490522 25.800466439075596
15 0 0 29.164849740237706 5.646263169268086 26.409390911067486
16 0 0 28.20654041387335 6.732347826284013 27.455138658746215
17 0 0 27.081970788108194 7.6399318853950655 28.507713266313306
18 0 0 25.980889232016466 7.56507552089559 29.914311714070184
19 0 0 24.31294049615242 8.214096136943759 29.895257722923215
20 0 0 22.540460625626338 7.939545458161747 29.92518375711756
21 0 0 20.77955188046763 8.117937514091862 0.24457909476097373
22 0 0 19.3090990616099 8.715866893714162 1.0837215833801195
23 0 0 17.89437241300281 8.751838682807866 2.1834467929225356
24 0 0 16.924862799312233 9.14824795204504 3.6311726513658074
25 0 0 16.08336993208159 9.661692839651959 5.118468324456633
26 0 0 15.098659781192676 9.943410454304475 6.576823583745671
27 0 0 14.254177334167323 9.113259775517038 7.900945618859534
28 0 0 13.573025457479966 7.503028176017496 8.24247953598777
29 0 0 12.518700979418607 6.078929698863447 8.490569718369034
30 0 0 10.96685950372122 5.211754288472824 8.713544724427615
31 0 0 10.373604210712239 5.026058532969559 10.386177521570742
32 0 0 9.950750509190422 5.644522174889986 12.0049237613518
33 0 0 10.645045389719284 6.541862440585275 13.3748702458618
34 0 0 10.52344533886341 7.5773788651611325 14.810581147917711
35 0 0 9.816282748439436 8.794011324743149 15.894892984564192
36 0 0 10.143109655858707 10.244854480238505 16.878830134155788
37 0 0 9.038042987136128 9.236883486044745 17.869340880507764
38 0 0 10.38144603496736 8.437733312192861 18.742406069459783
39 0 0 10.903571561503766 6.727577776349303 18.79565591807588
40 0 0 12.04070515389788 6.586879022556721 20.172767749396264
41 0 0 11.158083721539954 5.555276836962528 21.339161046336983
42 0 0 12.508994188091553 5.088751479167403 22.412984172223737
43 0 0 14.096326843818598 5.846214940914881 22.740533264481186
44 0 0 15.800280707316107 6.39271069121479 22.674908245086772
45 0 0 17.50983937417673 6.1729269422202755 22.195681036103352
46 0 0 17.686999926822057 7.072421711622674 20.660551991657282
47 0 0 18.716614800909614 8.510036357706369 20.378709599086882
48 0 0 19.17570101372004 9.804210554765335 21.53131494721216
49 0 0 19.023599117494896 11.119112579754033 20.339004462608454
50 0 0 20.354301697939793 12.30210777613559 20.291425645351104
51 0 0 21.529704109169344 13.558787738671619 19.844819619254082
52 0 0 22.913004778970368 14.617574386735203 20.19888337596737
53 0 0 24.045228917446046 15.133350709104985 18.930021442221026
54 0 0 25.161843693424533 15.533545079386629 17.602247702785082
55 0 0 24.625232600121794 16.94794239612272 16.650235754929604
56 0 0 24.88725857737807 17.464301263694523 14.955889620038725
57 0 0 24.046555960823035 17.247369888536547 13.388173785244158
58 0 0 23.710007972290224 16.954319876028684 11.653786421260271
59 0 0 24.638064538777847 16.903477638871678 10.125026746613017
60 0 0 25.711310523254657 16.350841249778686 8.804583586247418
61 0 0 26.80293653492409 15.27342154403981 7.883601782898107
62 0 0 27.538886955264058 16.23741497864773 6.5673362694539374
63 0 0 27.962233231063255 16.5259082940634 4.8491943272001565
64 0 0 28.60771771292748 17.4398874217013 3.4465758919087786
65 0 0 27.895958090144166 19.01110359638774 2.9710872879252084
66 0 0 27.126963362461584 20.556984300850974 2.5086493551923734
67 0 0 26.111970086302343 22.027901425255035 2.5254323176047406
68 0 0 25.16728826614375 23.547477816474963 2.5638345248547894
69 0 0 24.83914357761302 24.9888036404046 1.552413041314798
70 0 0 24.75519525981567 26.620676017111954 0.8292520742534054
71 0 0 24.785600179996326 28.21314005779087 0.026300757784709392
72 0 0 24.82446341089615 29.773538744320835 29.160601818791484
73 0 0 24.897505071558076 1.4614193563570133 28.58193675572344
74 0 0 25.013009379175365 3.2326220673067736 28.369099062522185
75 0 0 25.173847014319325 4.802347497380557 27.524909009517874
76 0 0 24.956593786118727 6.569014854636542 27.32978427517764
77 0 0 24.58197305330746 8.313813655028824 27.198966048856224
78 0 0 25.429363678204336 9.468385198935605 28.27178536159205
79 0 0 26.401068957248043 10.9168487796806 28.67643174450557
80 0 0 26.321096739976497 12.354461701954211 27.608286434796725
81 0 0 25.12859582476605 13.604928565771493 28.12269761993122
82 0 0 23.89428883140566 14.869244399001941 28.490156358720405
83 0 0 23.45537682819294 15.969780919065046 29.841417754827653
84 0 0 23.18455887029516 17.179585789446936 1.1337894932858585
85 0 0 23.177004361492095 18.375577198180157 2.465886048640793
86 0 0 23.319873724076775 19.540987296954953 3.822578029614989
87 0 0 23.92433957258475 20.465260833656366 5.237476700064738
88 0 0 25.143417348601577 21.778297078851374 5.220324191342564
89 0 0 26.377787472975648 23.07343115985924 5.199503350181898
90 0 0 27.396027427239755 24.000378722804207 4.061670719564451
91 0 0 28.105742517347267 24.863767468155935 2.6710493119667182
92 0 0 27.26004552009643 24.314266162259702 1.1981295094992812
93 0 0 26.185036128262052 23.4104255578758 0.10458559668905282
94 0 0 24.479261623264094 22.924184985868642 29.977343773619552
95 0 0 22.796898403095803 22.419466576948462 29.688335007412878
96 0 0 21.680109550797468 22.53018512857334 28.303138851359954
97 0 0 20.818416863725886 23.093307927862618 26.843624873745952
98 0 0 19.56130112495973 23.91549039471587 25.87990596544308
99 0 0 19.448885936923304 25.56417276993218 26.560136506456832
100 1 1 26.423525724485796 0.6208520596084318 22.051961065413202
101 1 1 27.113259232035922 1.5648349844058886 20.313567241783236
102 1 1 28.3980244085725 1.722592839529851 18.64301796480323
103 1 1 28.328716117958486 2.032613847008483 16.566978478902215
104 1 1 29.72749794483279 3.513232726648098 17.005933798317322
105 1 1 1.324340909961156 4.241502482710122 18.133649992009666
106 1 1 2.319916785375962 5.5833372067459734 16.878792659791106
107 1 1 4.321315059973455 5.008771120404042 16.798693714836503
108 1 1 4.441789301488976 3.508240288914656 15.344775802137594
109 1 1 5.250797669723622 2.6784559169288897 13.646872917892228
110 1 1 4.430904467114581 2.6944710997842747 11.772328596254306
111 1 1 3.4016626968792827 4.1037963365187435 10.5941693619772
112 1 1 4.501289057008911 5.882689197454407 10.622775970880928
113 1 1 5.456452313445733 7.6641534558703475 10.010114843731007
114 1 1 7.087075999219407 7.7563868388317845 11.345463704778695
115 1 1 7.215120250566632 9.53705672433378 12.477891829266985
116 1 1 8.79770510892906 10.31262192522009 13.574856219808117
117 1 1 8.574243242703304 12.407441682116156 13.674269060749602
118 1 1 10.010334729236465 12.96510566121523 15.027504883672147
119 1 1 11.609041217862101 12.760658261029306 16.27048793967602
120 1 1 11.046155724615895 14.667247066638645 16.7139241667925
121 1 1 11.682740320371247 16.596330811036566 16.981638572254422
122 1 1 12.116409785888635 18.26090694186585 18.166589892572397
123 1 1 12.872895224840445 19.962384959387236 17.20867019622165
124 1 1 13.942402489265094 20.636428970157276 15.557404929620358
125 1 1 15.0226263352418 18.88041014494718 15.672507434876621
126 1 1 14.50924501026013 17.481234291961208 17.106164499121643
127 1 1 14.10446384660325 16.642595817257924 18.946206926994357
128 1 1 14.567130596123627 14.991109626181125 20.116633357871923
129 1 1 13.681239113207639 13.536839640867735 21.301049438818335
130 1 1 13.092963657748498 11.55272913605955 21.29651456495138
131 1 1 11.33723630212914 11.694621360768563 20.210049158512113
132 1 1 9.782752650741166 11.771178982917577 18.8594763298719
133 1 1 8.262889174937683 13.132575410571526 18.617175324016877
134 1 1 7.138395956947452 12.780269317309573 16.917706839908625
135 1 1 6.159950722095346 12.21722938642117 15.194595603740137
136 1 1 5.284978743700427 11.561145622034664 13.451127349913397
137 1 1 4.55494766678243 11.176875670921866 11.553689689087753
138 1 1 4.652761795318431 10.013745892517317 9.831757416108434
139 1 1 4.826816152561051 10.358721571942821 7.78942400712989
140 1 1 4.761446585082538 10.996570373795642 5.8229172734066355
141 1 1 5.089155647366897 11.770634460725198 3.9395006528367476
142 1 1 5.490144236681219 12.293142014162104 1.974918954041949
143 1 1 5.5429062434860885 13.150239360028928 0.0838743903478459
144 1 1 4.756870105032969 13.703170557965798 28.237112735315126
145 1 1 4.5650666456006865 14.286340476662975 26.25686808690392
146 1 1 5.443373864783769 14.632053868814845 24.42551405937332
147 1 1 7.210370428654584 13.569171533888179 24.241848641246623
148 1 1 8.833135832774163 14.320507058214115 23.188240395151524
149 1 1 9.15394040584717 15.426212862674253 21.469653798347814
150 1 1 11.06793176278092 15.526585940517508 20.69196486565232
151 1 1 12.10292704927309 14.595644119841204 19.132003375600146
152 1 1 13.366010532041209 13.421587405112977 17.942292515456902
153 1 1 15.215229201713882 12.436881773498781 17.70632817598088
154 1 1 17.20228393153613 12.811712376177388 17.208127682334656
155 1 1 19.094121051850294 13.582508240569155 16.858920064323893
156 1 1 20.917670052099044 14.242083305842035 16.142237054810995
157 1 1 22.786014588172534 13.933771729495176 15.347855338954057
158 1 1 24.60624782618269 13.456849781347929 14.5011651702763
159 1 1 26.192231547777173 13.11226692671678 13.20426673147503
160 1 1 27.710438001072518 12.741666783382689 11.825347233172382
161 1 1 29.46712486160921 12.38883784600607 10.769829729652162
162 1 1 1.4243990453888886 12.744637408923802 10.204082340474178
163 1 1 3.4465888843098735 12.710718011646282 9.731079380750224
164 1 1 5.407716733561456 12.561747103227178 9.066891957457461
165 1 1 7.290854576258719 11.732102483844939 9.221162393526768
166 1 1 8.52365413115055 10.182481801310745 9.758172268120836
167 1 1 10.07284024804815 8.919118270823214 10.193112260941684
168 1 1 11.284100264567313 7.350727638348426 10.741945597863875
169 1 1 12.517074717759968 5.8189593002285545 11.405679888968681
170 1 1 13.90998751005164 4.302868807038165 11.068407178892972
171 1 1 14.133207625331321 3.1611472541481187 12.807370419252091
172 1 1 15.429127338053489 2.109029110457614 14.07028790385068
173 1 1 15.28733547395732 1.7110021011050214 16.10031604540004
174 1 1 14.04431658655557 1.427967073259208 17.729306981069954
175 1 1 12.74746737847373 1.9756479130770686 19.246316915476957
176 1 1 12.315790271075782 1.734374200888833 21.246870597727042
177 1 1 10.781184758965338 3.0001832479532067 20.71336611420553
178 1 1 8.86031649256432 3.444661675245457 20.12504992027631
179 1 1 8.559246120739997 4.632035698295401 18.452489354296876
180 1 1 8.399511218299747 5.280590677951376 16.506360257386792
181 1 1 7.47569110408487 6.164108981880918 14.88899226025624
182 1 1 5.69498868588181 6.509043870119306 13.857350357329123
183 1 1 3.702184564416391 6.336068907982969 13.259009019215265
184 1 1 2.0507255946267 6.663212917842545 12.030103229274594
185 1 1 1.0469090815874695 4.887833880186868 12.342618928747997
186 1 1 0.04229377027989415 3.3844484435843385 13.360331723147626
187 1 1 0.9062958386917466 2.1969558870660655 14.814465512007295
188 1 1 2.5673410442650857 1.7478202259716882 15.96524527498402
189 1 1 4.120065538202887 0.6513937954834369 16.76497825219006
190 1 1 5.864407150442894 29.739956600142172 17.352876365503665
191 1 1 7.844261918649582 29.214587252681923 17.127132996088108
192 1 1 9.315748799422481 0.1811322834147324 16.06875684656603
193 1 1 9.873089550397419 2.0005153616950806 16.863772070759588
194 1 1 10.630417279049615 3.481011085854063 15.642690144522053
195 1 1 12.33293419733058 4.6132195640233675 15.383811649359025
196 1 1 13.10747858850866 6.531982547474753 15.422357067236316
197 1 1 13.623009758064367 8.280828257994717 14.44201879429893
198 1 1 14.101535238145804 8.818121435365732 12.506790641455655
199 1 1 14.015184297922456 10.117457130534559 10.905741893066805
