ITEM: TIMESTEP
195
ITEM: NUMBER OF ATOMS
200
ITEM: BOX BOUNDS pp pp pp
0 30.0
0 30.0
0 30.0
ITEM: ATOMS id mol type x y z
0 0 0 19.292996544145787 26.136925180299464 18.015329014783052
1 0 0 21.00292629657762 25.62306536108153 18.186048099234494
2 0 0 22.720778291391213 25.11577083441002 18.314304365391184
3 0 0 23.26635906657261 25.043022913260174 20.02611951852584
4 0 0 23.97089085695454 25.77608734589468 21.510589796092702
5 0 0 25.013984442173392 27.052084947197052 22.241610116311083
6 0 0 26.646149008578274 27.774180792769982 21.966259452911334
7 0 0 28.275716966701623 27.770318825436902 21.181115596755696
8 0 0 29.4023986873148 28.525826756939026 19.99407756232222
9 0 0 0.6203533276729688 29.843352132334857 20.041496726173825
10 0 0 1.5091824401923184 1.3369415442220647 20.484022478142823
11 0 0 1.4290846772782781 2.1274599349067707 22.093026276067572
12 0 0 1.3163631474622446 2.5683411776373544 23.82656524719703
13 0 0 0.24155668070380942 3.8262623540503395 24.511704977930222
14 0 0 0.25863897678551123 4.535360479050123 26.15156565112421
15 0 0 29.136181453177148 5.873623919629193 26.546075322849102
16 0 0 27.876272334502787 6.792667688839215 27.435788090231775
17 0 0 27.10075118787007 7.5070801302136285 28.890089574188977
18 0 0 25.721547339232792 7.981403894941994 29.92961834383451
19 0 0 24.04791755489152 8.550482447081588 0.1765356039640761
20 0 0 22.26410536069408 8.51401972279898 0.30821995542595665
21 0 0 20.489227363131796 8.370527142729145 0.07410831853212528
22 0 0 19.04765578680243 8.770526342270923 1.058097907151847
23 0 0 17.66835987758435 9.144011486611305 2.1270904341861234
24 0 0 16.640007658958993 9.32173951957341 3.576678791789078
25 0 0 15.537833879530705 9.740969220821107 4.926951949750244
26 0 0 14.634360588399506 9.799326915630836 6.4747538236646145
27 0 0 14.053373132929316 8.832467456783474 7.861397481242814
28 0 0 13.498874441447764 7.155030180803892 8.135859149336891
29 0 0 12.343724253297832 5.813012140774092 8.396913862694417
30 0 0 10.80103420065613 4.971536267087362 8.758041664201222
31 0 0 10.23330513563323 5.201298944708753 10.44510536385659
32 0 0 9.939382095037331 5.492036883612185 12.189502046130327
33 0 0 10.737887331585632 6.713645767481739 13.241138019541458
34 0 0 10.54835945044598 7.507066035128244 14.843943690624158
35 0 0 10.065962649455235 9.12981960892349 15.421061303725486
36 0 0 10.248720106022637 9.869050249405161 17.036456252410495
37 0 0 9.014107638465319 8.97944249444721 17.98329935873283
38 0 0 10.380519533066117 8.253404233338683 18.875326360657976
39 0 0 11.11355081871204 6.632888366573332 19.05911404109398
40 0 0 12.11975315268869 6.706641238907287 20.535502032638778
41 0 0 11.286787664461158 5.426843552584088 21.468141719713408
42 0 0 12.809174040766418 4.942073658838726 22.27313848820235
43 0 0 14.514743635348824 5.426834849220703 22.52271785914639
44 0 0 15.778622144170653 6.69336088421352 22.590885940762544
45 0 0 17.513358069040258 6.247682076917111 22.560168185312612
46 0 0 17.858866184414822 7.015343730613327 20.980739597053628
47 0 0 18.810459704671356 8.39548933363903 20.341964636274426
48 0 0 19.309722125559723 9.627442129489022 21.548605904473337
49 0 0 19.06752608850953 11.15630587192955 20.639035893422136
50 0 0 20.19262912128208 12.542839976906409 20.401460922830776
51 0 0 21.597798530519622 13.57113511850937 19.93583871564587
52 0 0 23.007313213727926 14.602460086040118 20.373109498286265
53 0 0 24.22578802190628 15.102767724604917 19.160785254725393
54 0 0 25.252491595814803 15.499752608051065 17.750591250319374
55 0 0 24.57793567378737 16.847091225179554 16.788657834710996
56 0 0 25.03336656411337 17.31301020305767 15.12469059131882
57 0 0 24.05609192455148 17.38641470330475 13.632981065819287
58 0 0 23.801764231407457 17.278930787290186 11.871697320448574
59 0 0 24.553976024272735 17.159841855897863 10.261445514593325
60 0 0 25.561021003157062 16.59573926152084 8.904424470779318
61 0 0 26.71971779567954 15.4629585443305 8.1589141464836
62 0 0 27.570617624924367 16.320114503712013 6.841434562333882
63 0 0 28.176248489390716 16.79808734608366 5.224132994354583
64 0 0 28.70487008782357 17.621307115439368 3.721433536707538
65 0 0 27.997674274892915 19.222250238819598 3.353934592765542
66 0 0 27.226363742384184 20.760653039458056 2.877045351589328
67 0 0 26.189970413483177 22.208995769028164 3.017766043642624
68 0 0 25.14746648261561 23.634300981119413 2.7243189489725492
69 0 0 24.862675782751186 25.1269455948465 1.7746377093998762
70 0 0 24.88570881342234 26.735467587712453 0.9903471538437006
71 0 0 24.88784105591949 28.37401506849664 0.276928726567821
72 0 0 24.96932193551706 0.052139547485775345 29.6761535501286
73 0 0 24.960187024662257 1.729549930208351 29.070321449403558
74 0 0 25.091033612217814 3.489286851833038 28.803027377727698
75 0 0 25.263412052640238 4.799464208566691 27.603811585118688
76 0 0 24.666348351782403 6.472780264579687 27.42041866065533
77 0 0 24.34583403873194 8.215927675849105 27.181594501845783
78 0 0 25.10186162186899 9.597473728310137 28.030122566000127
79 0 0 26.496011306489102 10.466483245232741 28.735563123398464
80 0 0 26.491520942673926 12.15022482083511 28.128192477014217
81 0 0 25.337336735856454 13.492694277532504 28.41065945185499
82 0 0 24.168723348976545 14.817005184013322 28.72174026127828
83 0 0 23.720031467977257 15.969230676968802 0.016972378397505528
84 0 0 23.391767806953986 17.14845190207511 1.323056118956334
85 0 0 23.283018616344435 18.202337130580243 2.770180804070432
86 0 0 23.29479197240544 19.38944665910334 4.11909065526839
87 0 0 24.07075433108612 20.34901973270302 5.424513775048492
88 0 0 25.229083144200676 21.714795649172817 5.567836520154676
89 0 0 26.3635825373781 23.099299833168196 5.525183746851365
90 0 0 27.409861066421417 24.109668535369146 4.484892215578332
91 0 0 28.223866396231486 25.02908921181275 3.1829154086730305
92 0 0 27.330984626130974 24.55367326222795 1.699137873474501
93 0 0 26.374100630920424 23.557612978539098 0.5461545588980895
94 0 0 24.646917678261158 23.082509619812907 0.4386690839044087
95 0 0 22.857999888296664 22.988485558437976 0.4625596197588296
96 0 0 21.54889560945675 22.883192556725927 29.249589329342758
97 0 0 20.554781812903734 23.37698948264465 27.85149131964857
98 0 0 19.356474993251577 24.21565729418746 26.82866856477479
99 0 0 19.469657999935187 25.89617949907192 27.427239974751757
100 1 1 26.34805266526508 0.9136157851189642 21.730280778071517
101 1 1 27.107425159571125 1.7484733711522489 20.023266495460476
102 1 1 28.386082613694487 1.9748139053106544 18.428422185079963
103 1 1 28.652497371010742 2.2132949146685488 16.415886022950726
104 1 1 29.849463483966616 3.834759988042594 16.940315051750993
105 1 1 1.4770625548811493 4.268444764180826 18.180390568855657
106 1 1 2.538153357008816 5.635550923407112 17.005396715594024
107 1 1 4.503408954005304 5.067636052822474 16.54382742179397
108 1 1 4.666764434936868 3.5219581018855903 15.207550793228314
109 1 1 5.074614850873185 2.6979378276196866 13.372599212105191
110 1 1 4.376158836879827 2.868022184571128 11.437159991116046
111 1 1 3.343842447350407 4.453544510134479 10.650370109030826
112 1 1 4.745777278676313 6.0528319481429 10.645210380554913
113 1 1 5.841920125721166 7.547156418616059 9.679510278983084
114 1 1 7.210919981168193 8.025409288210946 11.160904201366973
115 1 1 7.22862491063033 9.59063688866561 12.539048377675098
116 1 1 8.980048533762252 10.399157089258559 13.413193375338896
117 1 1 8.55697334113776 12.324144296819174 13.949502236078208
118 1 1 9.89589824267244 13.139977117763372 15.234353284454409
119 1 1 11.583865598337566 12.822844423095999 16.34738012935479
120 1 1 10.965763430203879 14.799490248059135 16.488905785869136
121 1 1 11.741777500671601 16.648102741623525 17.020866701046756
122 1 1 12.12611782596179 18.40364075282124 18.06901124713032
123 1 1 12.897389564052544 20.03111419135193 16.972835877157
124 1 1 13.885860753460639 20.406809755271034 15.150735712339284
125 1 1 14.92058759816578 18.684286753630637 15.67322986465242
126 1 1 14.243160047676163 17.281345136842845 17.026336299122324
127 1 1 14.125253106367301 16.74119409056683 19.028812019370907
128 1 1 14.117985672193607 14.920986206584653 20.038522419181678
129 1 1 13.755688773016654 13.237746287146 21.232468889730033
130 1 1 12.778642243198473 11.399627227384194 21.346390027906722
131 1 1 11.043641919716412 11.733668607578531 20.283874474978695
132 1 1 9.683762786673805 11.801744885320955 18.732439581022
133 1 1 8.121800693384284 13.147948970313406 18.5277594316071
134 1 1 6.936856118506805 12.857470530388387 16.848932349823983
135 1 1 6.134833657430313 12.084670097400954 15.092431216202215
136 1 1 5.198929037045089 11.378245132398463 13.381489680643636
137 1 1 4.527894095784391 10.902297644499706 11.480625921871276
138 1 1 4.696260030509867 9.82982085184933 9.717161784374275
139 1 1 4.86498580134829 10.281949632822077 7.705976752665631
140 1 1 4.580186343759958 10.90885587026811 5.763457141712487
141 1 1 4.9212661786393515 11.678901805484296 3.880863909311077
142 1 1 5.24055184449191 12.311840880928413 1.9402213338992178
143 1 1 5.278265750077999 13.135406612006769 0.036080240030209355
144 1 1 4.596800075749933 13.682682469299863 28.16081464385501
145 1 1 4.508872175077894 14.12033881642274 26.150978001624015
146 1 1 5.660126346699329 14.31497794728435 24.45511983822646
147 1 1 7.515238281961574 13.43320820824276 24.35749596715998
148 1 1 8.765737819141561 14.63027734915979 23.21182938022125
149 1 1 9.183848930979886 15.469335696751951 21.361602785503937
150 1 1 11.132209853648735 15.474210385069503 20.723262773410895
151 1 1 11.904153933466976 14.478857730084377 19.09720256784932
152 1 1 13.394281829796506 13.61995649577928 17.93784606335996
153 1 1 15.052180191528993 12.42060590924344 17.63328621489944
154 1 1 17.048194971241582 12.732322795098204 17.198954319642358
155 1 1 18.93244193899447 13.449609365298397 16.813810547332924
156 1 1 20.78329435609341 14.110128855969204 16.20197362991063
157 1 1 22.685518843257828 13.84225837093397 15.404567526581273
158 1 1 24.547928238373874 13.33285349615595 14.629469881378004
159 1 1 26.043057808382382 13.001987950406491 13.21216295031833
160 1 1 27.65197291483759 12.806880666921412 11.905722960970703
161 1 1 29.335290598989165 12.304283329057842 10.818507316614383
162 1 1 1.310274978002789 12.621175522853008 10.33932968830748
163 1 1 3.3069453086412204 12.574768779689522 9.838476099934827
164 1 1 5.303075723308163 12.59110494077678 9.230658838725514
165 1 1 7.235037242172677 11.83354665431712 9.484859517312417
166 1 1 8.399878961582303 10.159227384214462 9.897742597123937
167 1 1 9.994066451056014 8.859521896191206 10.21293535437143
168 1 1 11.394427681953404 7.442444933077657 10.80024482323777
169 1 1 12.524482741450965 5.872777094846883 11.56074417337754
170 1 1 13.827975176469533 4.398290745385155 10.901410704010113
171 1 1 14.1534650233006 3.073605636707966 12.47376400622146
172 1 1 15.3712805086304 2.1429957591108098 13.86956404979932
173 1 1 15.398565894913704 1.5257130406475434 15.853524785032084
174 1 1 14.20299608296665 1.1690434383192285 17.497925327510437
175 1 1 13.018811386263192 1.8094316403732977 19.060555525136255
176 1 1 12.619781613971574 1.6172935467749854 21.080221578316905
177 1 1 11.083644537051883 2.9800898435660628 20.858260562710548
178 1 1 9.09933066831727 3.319452703910444 20.35884818741124
179 1 1 8.554374001400785 4.447805579337411 18.709177065604976
180 1 1 8.359849821731293 5.20637857360409 16.783077310392645
181 1 1 7.654158190096319 6.0785421919081015 15.049502878652603
182 1 1 6.003934683743637 6.597113393718521 13.930873085962531
183 1 1 4.031275403852697 6.387634841667618 13.340578300006312
184 1 1 2.7354863675803784 6.598626414419886 11.734639425963929
185 1 1 1.4461559456394137 5.047839378959692 12.196212052671461
186 1 1 0.3076587386845045 3.6260026930595535 13.161492385181571
187 1 1 1.1628260914956474 2.6570818300298273 14.792186005059554
188 1 1 2.5371037483010688 2.0183350350742795 16.228053559561694
189 1 1 3.9836853523184 0.6795423814831779 16.90248178727226
190 1 1 5.737537452926201 29.725191189858254 17.49275937455338
191 1 1 7.6912635604987525 29.120831744033246 17.162468981211912
192 1 1 9.151719416679873 0.08972613096474025 16.05063000185904
193 1 1 9.861616175575941 1.8345815797765375 16.888542465632746
194 1 1 10.506106859109044 3.357270285590073 15.651069942360422
195 1 1 12.258156649726361 4.437564367533645 15.326655728569254
196 1 1 13.161107633659038 6.3004012469930295 15.362111233140254
197 1 1 13.49245930623471 8.13155097317417 14.457676536267188
198 1 1 14.18207612782497 8.836653166148034 12.652194168730599
199 1 1 13.88681792916357 9.903672078179296 10.908526159879901
