ITEM: TIMESTEP
199
ITEM: NUMBER OF ATOMS
200
ITEM: BOX BOUNDS pp pp pp
0 30.0
0 30.0
0 30.0
ITEM: ATOMS id mol type x y z
0 0 0 18.7829171901991 27.035717433163654 19.381392818085445
1 0 0 20.519825191574437 26.711189231637235 19.658338215596693
2 0 0 22.018209908422808 27.023614582568392 20.582493725112112
3 0 0 22.59736188913562 26.774628533188576 22.2524991648106
4 0 0 23.615848943668816 27.896465179099877 23.19757144000098
5 0 0 25.33567096227883 28.380222364064277 23.16432512210562
6 0 0 26.678481101797622 27.941681119260164 22.068264507737794
7 0 0 27.960811235517795 27.72441449664414 20.8484734977569
8 0 0 28.931256293453682 29.13510370027242 20.383820933340886
9 0 0 0.2591940560051071 0.235484573846564 20.814771091348355
10 0 0 1.6872957312666959 1.0782469947338493 21.47149497077885
11 0 0 1.8103437068520858 2.1165531349651476 22.915994949645953
12 0 0 1.299841612708645 3.2914617418611143 24.15021159570058
13 0 0 0.2979371898011491 3.71263314909912 25.547160176670086
14 0 0 29.969150341418054 5.154623593064466 26.514710404724955
15 0 0 28.783130279911564 6.288208843068955 27.18440544318333
16 0 0 27.375162997424948 6.977573706721836 28.02472025346662
17 0 0 26.38197957121622 7.267297238039211 29.478823019279176
18 0 0 24.96719342643332 8.354912789239721 29.674941545502584
19 0 0 23.537835246695092 8.737391632768357 0.7055413030290729
20 0 0 21.93027490882998 9.542082500645177 0.748756756040757
21 0 0 20.212596149202582 9.169167914360155 0.4081362497639503
22 0 0 18.56598470415653 8.972741498165485 1.0726491538060794
23 0 0 17.404623373362014 9.683238514919253 2.227013370204395
24 0 0 15.97122962331962 9.914940256578618 3.2695265462571803
25 0 0 14.728100369398657 9.661416125941157 4.531023197950879
26 0 0 13.874080103063399 9.290718635661774 6.056562932138356
27 0 0 13.731849614951281 8.212334224896889 7.470195128849864
28 0 0 13.209255531188449 6.566942888300477 7.92706848689856
29 0 0 11.90615391471515 5.389405856937986 8.271057003571093
30 0 0 10.534457124388291 4.56163601150654 9.066669970562906
31 0 0 9.942590533718395 5.261221965769784 10.597267481023774
32 0 0 10.140077073603303 5.363997298446545 12.3696046559473
33 0 0 10.622597750809007 6.9154033010447 13.114608062997517
34 0 0 10.505105666464612 7.752201964731518 14.686604436070672
35 0 0 10.814264477192468 9.474258946913762 15.043206778014047
36 0 0 10.120077411934712 8.740818233650037 16.51873992851158
37 0 0 9.322707534341426 8.661714807664842 18.11225616063123
38 0 0 10.323119571964172 7.692700276481373 19.2302561324749
39 0 0 11.55506325850973 6.466855952507263 19.661597226705815
40 0 0 12.234387587907989 6.984749462121304 21.230530857081916
41 0 0 11.862348237050469 5.37933297831357 21.92692872096445
42 0 0 13.583021254764647 4.880583541379114 21.911048860786835
43 0 0 15.365259725833882 4.9697010184779575 22.049544417320842
44 0 0 15.625648496236138 6.707430382284511 22.37990484352087
45 0 0 17.246078340523056 6.512390732418784 23.115820268292243
46 0 0 18.26808427701934 7.05540068525398 21.75792185566314
47 0 0 18.907857478397297 8.056304760207986 20.42128669228233
48 0 0 19.45928057741389 9.490547426263367 21.356158532810095
49 0 0 19.477058276326662 11.287309233365699 21.342250833337072
50 0 0 19.94593220166489 12.79352455262763 20.48332254027294
51 0 0 21.556549956374642 13.587274437416731 20.474713201667786
52 0 0 23.117160604268033 14.468468641724865 20.560303445290977
53 0 0 24.489127597444117 14.99893808632826 19.547379648905384
54 0 0 25.453297854943685 15.482578031959418 18.124961227767926
55 0 0 24.552430639242335 16.60747426177693 17.070480810239918
56 0 0 25.15987371569144 17.037662326193207 15.441405704401998
57 0 0 24.196049138173542 17.647516617345296 14.060987942737055
58 0 0 24.026045528005 17.972253220638848 12.310951015939484
59 0 0 24.382322959191562 17.6185530899144 10.59603193520787
60 0 0 25.272859098678 17.041068984226 9.157819030310202
61 0 0 26.609500633456886 15.977500288852049 8.631666696267462
62 0 0 27.61551771598029 16.439356682682092 7.225256307761129
63 0 0 28.52898728517065 17.436949613129443 6.049700907362638
64 0 0 28.859019091093714 18.097530415676747 4.418042515840539
65 0 0 28.096180171894925 19.661660142719295 3.9876094188738302
66 0 0 27.28721597625822 21.257183934347747 3.9211414579267903
67 0 0 26.24330255595319 22.680491991501274 3.6492527735466687
68 0 0 25.193426078910562 24.11945585539438 3.561592642505641
69 0 0 25.090357039289643 25.5615205134773 2.5145217050460817
70 0 0 25.055047411941327 26.98320546509129 1.4270369543520898
71 0 0 25.170697235511486 28.70911192660403 0.9458028618224417
72 0 0 25.12948475011443 0.4660842788820763 0.5790138419676851
73 0 0 25.207873107315194 2.2335814421020945 0.28894947888766426
74 0 0 25.23841397333723 3.787988092295796 29.40062825385159
75 0 0 25.196292098589655 4.924187140363043 28.017478878497908
76 0 0 24.26872933972497 6.371366532457019 27.52743662292676
77 0 0 24.119580638743905 8.14851593192577 27.45394276118975
78 0 0 24.826008052776768 9.785355409945824 27.345228325580887
79 0 0 26.332182117981052 10.084775645611833 28.269043751275856
80 0 0 26.549553828776027 11.561388383888419 29.264519034821276
81 0 0 25.76859555364476 13.162748111804405 29.043855251431843
82 0 0 24.85125009626055 14.680559313713571 29.32115375704945
83 0 0 24.277636728594302 15.995122235239274 0.39624791070036613
84 0 0 23.85405312764762 16.984158425007166 1.826170369416567
85 0 0 23.51526542612912 18.00309878126156 3.2536785590613526
86 0 0 23.440307401494643 18.968693960413134 4.751287751310195
87 0 0 24.360923237448752 20.202350554327282 5.646785076408924
88 0 0 25.359976905154827 21.592786272002623 6.158586582348355
89 0 0 26.357179278839077 23.07807478112944 6.165445568090368
90 0 0 27.315832644268337 24.271185560909586 5.235835978319028
91 0 0 28.28132687646362 25.284690875455734 4.119795649263797
92 0 0 27.435694232847016 24.700618256819446 2.6569671311687855
93 0 0 26.50909452533013 23.887286719894387 1.3643924756426222
94 0 0 24.851687940117056 23.401481425905175 0.9184972966512874
95 0 0 23.277851298201288 23.94120777776587 1.5448669178050507
96 0 0 21.54475267376969 23.806150784817152 1.148202085882968
97 0 0 20.074269008799178 24.02258336896052 0.15549733161688675
98 0 0 19.091390166252232 24.748890076094558 28.84995170959434
99 0 0 19.511545489488025 26.4629855487943 29.15172547262642
100 1 1 26.11297399382524 1.4580857162685106 21.21599651629777
101 1 1 27.10026013276082 2.1172837159046485 19.49859480691201
102 1 1 28.42184649937704 2.5336940564156545 17.880948993636338
103 1 1 29.372085793840753 2.6563750538737785 16.03030667786526
104 1 1 0.11323063224208443 4.408304939827471 16.86034080181825
105 1 1 1.752051799068753 4.363001625426717 18.18806371018714
106 1 1 3.082493682488341 5.644880236882715 17.257346826840262
107 1 1 4.739781245862255 5.180386068784058 16.04427460939098
108 1 1 5.139042202008662 3.539033101492488 14.800403266758245
109 1 1 4.669278773166763 2.8156637573015835 12.923693874427856
110 1 1 4.40449865215376 3.025719477988581 10.888043617775585
111 1 1 3.9103974660820473 4.864354047153027 10.04577752861505
112 1 1 5.758080773555715 5.845221711543008 10.181932899375722
113 1 1 6.7266461479912705 7.37598998821895 9.201474353594174
114 1 1 7.144982973569277 8.372280128893228 10.962856029816756
115 1 1 7.449466851174429 9.603034251704143 12.53617004681776
116 1 1 9.211256135726156 10.461115557027203 13.032317330729606
117 1 1 8.301328750938865 12.015523566424092 14.115140616155227
118 1 1 9.551387242202384 12.960746929746938 15.430081177769383
119 1 1 11.336922249883525 13.111210049111017 16.407435609862333
120 1 1 11.178883594271419 15.15517011581931 16.455749672283932
121 1 1 11.460703974432466 17.02509787547695 17.197849325309075
122 1 1 12.181585154072344 18.825416790164834 17.850796388209673
123 1 1 12.99550724599121 20.08883585245406 16.407198212864962
124 1 1 13.780230736279256 19.834620459613518 14.498693453926705
125 1 1 14.611892539525632 18.361324651255778 15.690482034295648
126 1 1 14.265392303235469 16.93692531447916 17.155247756396832
127 1 1 14.193091746662358 16.456623105610607 19.184276416844156
128 1 1 13.63335691458597 14.9015677056243 20.433336688334943
129 1 1 13.753874935817215 12.863037650488373 20.701484149187905
130 1 1 12.306956941969574 11.550917555890912 21.36204597185517
131 1 1 10.496562812369511 11.795085229150287 20.384964389368466
132 1 1 9.482932668075602 11.938965033274036 18.58630037749859
133 1 1 7.822971122613122 13.121330671748009 18.262977328619034
134 1 1 6.548503283328021 12.93502457295504 16.63189070374905
135 1 1 5.886667371743716 11.83159199454757 14.999982299855787
136 1 1 5.0903688658408885 11.0565259638545 13.25075810164941
137 1 1 4.523327934148244 10.319308807952757 11.401795355365465
138 1 1 4.780109298157845 9.519028305226719 9.505449131542786
139 1 1 4.880673922546564 10.128476442134273 7.530896574186953
140 1 1 4.2886525355446405 10.745711314754653 5.647277908380624
141 1 1 4.563822466512413 11.480910454960936 3.7292686216758693
142 1 1 4.724813866938454 12.372086918429067 1.8646887368880865
143 1 1 4.704379258125726 13.0905019798498 29.9295769066851
144 1 1 4.329060774768421 13.630307256423487 27.970010697107583
145 1 1 4.5079707838570116 13.781973837671398 25.916687993769873
146 1 1 6.127202760827609 13.620667865261906 24.63887818740218
147 1 1 8.172112562095801 13.42679453298493 24.414183461254563
148 1 1 8.474608040201224 15.112489408394735 23.241161883015604
149 1 1 9.26900609995941 15.485126061472327 21.33935531196722
150 1 1 11.196628657491907 15.25061657553492 20.605814961638757
151 1 1 11.35158216429323 14.185200390829559 18.822111948647695
152 1 1 13.22580687894407 13.908340374344045 17.975894903268852
153 1 1 14.683793886453556 12.490732787504664 17.49551466059038
154 1 1 16.756530748689347 12.609964467408872 17.18752678893895
155 1 1 18.683294898640277 13.193445079846674 16.66786525960994
156 1 1 20.612985852964243 13.775353810258217 16.280994631635284
157 1 1 22.502671873420727 13.599670489569002 15.53014452161175
158 1 1 24.361502055678024 13.119779125866314 14.787934467996818
159 1 1 25.749440510169602 12.82608839103242 13.275199779927691
160 1 1 27.480768033317027 12.884155546819096 12.128627518197687
161 1 1 29.073912386106898 12.240203471478175 10.970232550297416
162 1 1 1.1036491470485947 12.282599131046918 10.596059274639718
163 1 1 3.090353906965479 12.354749853177053 10.000040547512945
164 1 1 5.135739221978788 12.54217318543305 9.680187694879738
165 1 1 7.044007966051679 11.833037235307604 10.06340445862535
166 1 1 8.550685702960827 10.406255818278694 10.007731178057965
167 1 1 9.756815195691015 8.735478997433129 10.324551415264366
168 1 1 11.46647382301613 7.724766730314075 10.92164751608736
169 1 1 12.499503729522193 6.102204278886859 11.66756256928573
170 1 1 13.576027959585145 4.601850197352218 10.725047571190888
171 1 1 14.27048652478792 2.9598425601694527 11.792538772271465
172 1 1 15.17131406790483 2.2057735649173704 13.5024282207221
173 1 1 15.585534965929277 1.1778163848721668 15.265793780490513
174 1 1 14.540455040973303 0.6917939934031461 17.008285467054293
175 1 1 13.577173278277948 1.445524783746864 18.696451883001362
176 1 1 13.155256886895826 1.464664520862501 20.729962292756497
177 1 1 11.64602475226489 2.8283045535382136 21.11557740466409
178 1 1 9.64303647293251 3.1854512138014743 20.69319196755084
179 1 1 8.606114283669985 4.0463255207355395 19.12273540956142
180 1 1 8.190160072095567 5.071944039554171 17.384305663250355
181 1 1 7.952054196394839 5.853181808413265 15.49194063138115
182 1 1 6.616723743475433 6.688756654563012 14.148073668852573
183 1 1 4.698940102584839 6.5578641752504 13.373735519632023
184 1 1 3.2061533637265343 7.241329736070866 12.132786989204439
185 1 1 1.9981839794544443 5.557018869158635 12.209785495994423
186 1 1 1.0009513928519336 3.9495632719482705 13.053946595111306
187 1 1 1.9229429358574532 3.5762927216959195 14.860541670360996
188 1 1 2.4164414718881813 2.413934112332218 16.488178830104463
189 1 1 3.685176126144608 0.914780858344456 17.13744657453574
190 1 1 5.365623054316281 29.79559038301251 17.614861314065184
191 1 1 7.253067281437748 29.04346598681415 17.21890656567747
192 1 1 8.767376955247583 29.895924385586834 16.093940908902514
193 1 1 9.830494272412642 1.4888580953092785 16.881628009658925
194 1 1 10.337160502516772 3.1086572043316254 15.690434391356412
195 1 1 12.062819039561518 4.155624710183039 15.237942689742779
196 1 1 13.234711365677729 5.848445812423218 15.164461657147578
197 1 1 13.290819918345775 7.76494323561332 14.397262102725238
198 1 1 14.236024220989997 8.8960883610242 12.963061502510278
199 1 1 13.663549437550143 9.39393603247093 11.049766766646785
