ITEM: TIMESTEP
201
ITEM: NUMBER OF ATOMS
200
ITEM: BOX BOUNDS pp pp pp
0 30.0
0 30.0
0 30.0
ITEM: ATOMS id mol type x y z
0 0 0 18.64255561982282 27.4360722737361 20.053905808070848
1 0 0 20.36766087635468 27.35714628431147 20.509343619388826
2 0 0 21.51032818913511 27.86346483079308 21.78471724926678
3 0 0 22.376575247089733 27.88178808044018 23.34624990354275
4 0 0 23.72824280121325 28.92034949019961 23.882255345358093
5 0 0 25.434463478093893 28.80093789156551 23.352485191732434
6 0 0 26.520383788095213 28.02686071996661 22.156198950673975
7 0 0 27.661382566069857 27.925547265110513 20.780590302710884
8 0 0 28.72924968999329 29.37215219059907 20.722065449243665
9 0 0 0.14628998455254463 0.3883399902412232 21.194154727826625
10 0 0 1.605330850086133 0.9632936157269274 22.104523115108012
11 0 0 1.9402558854246064 2.238217597306623 23.342747359385967
12 0 0 1.107347175728698 3.4868351577471195 24.332839311749936
13 0 0 0.6070914592969787 3.8735232799389174 26.011136681096545
14 0 0 29.695195543249238 5.322797767339164 26.544416736635995
15 0 0 28.629027257507353 6.393250457845319 27.506211940137327
16 0 0 27.21687662520077 7.05391914590813 28.38659034694238
17 0 0 25.98300151564891 7.200577161596755 29.67571845109162
18 0 0 24.55950643058027 8.247946430189744 29.95186185253484
19 0 0 23.206559589082957 8.914721585308902 0.9075721389784155
20 0 0 21.76194841369712 9.953086322653961 0.9276479238361313
21 0 0 20.04270674698916 9.592349786472719 0.7045002380659595
22 0 0 18.3653752733928 9.214200065931124 1.123968379006244
23 0 0 17.187587578060793 9.847664695089778 2.29629489389597
24 0 0 15.637694808669309 10.173994487497485 3.120807663178738
25 0 0 14.446656759848887 9.633341279418312 4.342452009322624
26 0 0 13.567283750191102 8.997656476084751 5.771488673871224
27 0 0 13.570912190081033 7.899314593520607 7.193262052801475
28 0 0 13.019529639222998 6.308213491886328 7.808792043700049
29 0 0 11.688855447554086 5.20900654497629 8.270380150338546
30 0 0 10.409343584722928 4.371635508429419 9.186546903831683
31 0 0 9.838641251839011 5.2431239487868355 10.631666621811894
32 0 0 10.174563935172513 5.125756389024938 12.37966072682852
33 0 0 10.39803209824135 6.792184303050652 12.997055636053739
34 0 0 10.654847251064712 7.902714858216301 14.377214017225521
35 0 0 11.045137397346116 9.389822997532448 15.286497257941335
36 0 0 9.97132040006052 8.747681023320647 16.563236360229215
37 0 0 9.523102314089627 8.520709089070278 18.27674093989779
38 0 0 10.325877576919543 7.347105503718755 19.366937736871726
39 0 0 11.737570841741922 6.442993845956634 19.987017047130518
40 0 0 12.273188373496547 7.08442848780757 21.568131497088874
41 0 0 12.2741711959515 5.398079315053324 22.165145438750518
42 0 0 13.952848352139846 4.949475309084077 21.73918431472644
43 0 0 15.739088684472321 4.84648996947867 21.829473340444824
44 0 0 15.604625401620998 6.5698855309093735 22.278791348126912
45 0 0 17.10014041312301 6.661142441979235 23.25351849063451
46 0 0 18.42284074392598 7.1726090098653685 22.16945459769676
47 0 0 18.977437974055935 7.906146796189108 20.642750268786067
48 0 0 19.43751377648825 9.561016146958625 21.148105246754493
49 0 0 19.77425188028207 11.264482983954732 21.582334151712864
50 0 0 19.919504621238104 12.769125426977153 20.632404320361342
51 0 0 21.472761919404956 13.64099340836743 20.81294290472231
52 0 0 23.116825570908443 14.324933011235972 20.58559450345076
53 0 0 24.556164852133715 14.94308153502084 19.7149683100513
54 0 0 25.56111261289578 15.491004939980765 18.339710136466532
55 0 0 24.576044830030185 16.470251992631166 17.211356852205807
56 0 0 25.134728843962282 16.929500332114568 15.577944188360496
57 0 0 24.330367422946743 17.77217658911976 14.222870507481455
58 0 0 24.153685006389583 18.28058300879757 12.519093818809013
59 0 0 24.32981513694411 17.842738524493335 10.8016358862605
60 0 0 25.135179868761327 17.228338679386557 9.338275540790034
61 0 0 26.55037082028697 16.286543167567725 8.798110636529561
62 0 0 27.651577286333698 16.585494693932045 7.424511326119746
63 0 0 28.636271022955682 17.685723321199912 6.4130255151060505
64 0 0 28.90097550973171 18.427627609888887 4.803553738354386
65 0 0 28.107891377010947 19.97177964942882 4.375436497443937
66 0 0 27.20386675756739 21.511093068831894 4.406816724022339
67 0 0 26.177944973557356 22.870876956549903 3.8676006108632834
68 0 0 25.237066374636843 24.382780220080683 4.018395235394076
69 0 0 25.21364591425486 25.777959947657454 2.905324813979017
70 0 0 25.156619113670065 27.159486555694727 1.773913312758011
71 0 0 25.207233527750052 28.896775203508223 1.3328440582049883
72 0 0 25.296181664769026 0.663333995393447 1.0214136285621604
73 0 0 25.322649913020598 2.4449798050245954 0.8296372871314687
74 0 0 25.302129491179922 3.7675485765726866 29.627277851268257
75 0 0 25.040750149070238 5.0105336312901665 28.3702753834795
76 0 0 24.16726868749083 6.368299886773369 27.603349741791085
77 0 0 24.073519883178168 8.14902577596238 27.43607341626016
78 0 0 24.791490921744575 9.749357443713418 27.075527257960907
79 0 0 26.205732062682042 10.38492013488385 27.967943874791096
80 0 0 26.38137280911991 11.200895641375475 29.55100828524453
81 0 0 25.969015035768077 12.941304970452132 29.487267616206623
82 0 0 25.276617223821066 14.578152009495431 29.694597199133607
83 0 0 24.54731814888881 15.91375826066026 0.6361493963359778
84 0 0 24.122979044795503 16.92423138735146 2.048327293124253
85 0 0 23.674249682123573 17.881594567977988 3.485491301213975
86 0 0 23.60470528219231 18.777058033088245 5.025850447729629
87 0 0 24.500160804928697 20.16081029028208 5.701327336284492
88 0 0 25.406130029939643 21.534087402764285 6.392177102377261
89 0 0 26.351135739704645 23.049440347792217 6.4843952530438544
90 0 0 27.270574436922015 24.324197469876417 5.622943777220119
91 0 0 28.241052098271552 25.399280061375546 4.5703522934114496
92 0 0 27.579885933315815 24.70548259213219 3.0653954081681696
93 0 0 26.603318277475978 24.05195022656015 1.72707800870102
94 0 0 24.939060030277105 23.65987383026933 1.195765887822742
95 0 0 23.41444890255619 24.28774733571308 1.914039280966037
96 0 0 21.61914598373902 24.346554052314605 2.0215543910602185
97 0 0 19.950316117295312 24.406070563753158 1.3616825602840583
98 0 0 19.015143717191865 24.977587668859734 29.944368623609268
99 0 0 19.527238202839385 26.691251329493937 0.0041814863013271975
100 1 1 26.025949180022078 1.7757277554377295 20.872177128126438
101 1 1 27.192017549338246 2.274116243903122 19.218914124662156
102 1 1 28.35327286845978 2.803386472356895 17.574353532793275
103 1 1 29.691340039973024 2.8619769394314676 15.969062079924928
104 1 1 0.2778314745649034 4.690465576937291 16.859477781543166
105 1 1 1.8785478272900085 4.4432355140068225 18.14865531789647
106 1 1 3.442732288711205 5.588673093149534 17.328613135243476
107 1 1 4.765234096153829 5.149112989630218 15.784581031598652
108 1 1 5.329555433485982 3.601342281573168 14.527092160018816
109 1 1 4.471484663941507 2.957009019035214 12.748699954208195
110 1 1 4.429614768203626 3.1452753016241024 10.691857155287098
111 1 1 4.334021926547381 4.939710527357661 9.687358101396388
112 1 1 6.24764649460645 5.68256647966446 9.911489652598501
113 1 1 7.205231584365551 7.368222982075893 9.103688103353338
114 1 1 6.9745466825343305 8.359451066107844 10.89489563387533
115 1 1 7.572366402257944 9.553016139064322 12.450534367834901
116 1 1 9.313274677458134 10.510686683088872 12.865062316387377
117 1 1 8.286242047134428 11.832381935818413 14.096647917771065
118 1 1 9.395769404471661 12.837214605151328 15.526580237670627
119 1 1 11.201470748193584 13.261087845609069 16.40850088546022
120 1 1 11.314007847263008 15.325413960241153 16.468937578452092
121 1 1 11.146572045612704 17.252789623183464 17.312502321007525
122 1 1 12.218903414155895 19.03745071782769 17.69509035628181
123 1 1 12.963158688040744 20.177986253724292 16.11563099140693
124 1 1 13.738578211008432 19.503807800102145 14.299156448082249
125 1 1 14.496101366900637 18.12017494638685 15.64243078738868
126 1 1 14.483573464683428 16.824086051200226 17.265121302696777
127 1 1 14.18952389966215 16.222581344174795 19.248089079795186
128 1 1 13.632558282531274 14.82359516798189 20.685040327850324
129 1 1 13.64695505122911 12.770774362932562 20.42221942246534
130 1 1 12.120644234102022 11.724548712025106 21.317191039784507
131 1 1 10.25520630995715 11.820051270055469 20.417119014554004
132 1 1 9.376834744338224 12.02308375853064 18.547194208614545
133 1 1 7.662430251473333 13.091814723739645 18.095377792507055
134 1 1 6.369910963067656 12.912595893209998 16.50001854294544
135 1 1 5.594393532093064 11.723744799984651 14.999329748829002
136 1 1 5.057692212984235 10.896604512213774 13.180942795258902
137 1 1 4.558772780633905 10.025597394691468 11.375895906282386
138 1 1 4.816804714815228 9.419129923885242 9.412850917669534
139 1 1 4.846010529684794 10.053224094767856 7.436372863834502
140 1 1 4.2037942179038374 10.673741296851896 5.566764586175881
141 1 1 4.370830857511208 11.40474448913692 3.641201446692571
142 1 1 4.456570325692131 12.390103365242926 1.8262677386681403
143 1 1 4.373741133725998 13.059092469685492 29.869986002828874
144 1 1 4.2475632545864235 13.584643464789467 27.86808287473567
145 1 1 4.598469956269548 13.59948612194387 25.820845642779823
146 1 1 6.388570500661733 13.25796825318502 24.81614460762818
147 1 1 8.408680243116452 13.534005952047167 24.389695481311332
148 1 1 8.30789526660908 15.279361872068119 23.247366670439803
149 1 1 9.27480628868036 15.485243347841854 21.417828514753705
150 1 1 11.110979466204764 15.115866180282511 20.477189275858187
151 1 1 11.12258054753219 14.052276316110971 18.6947551660298
152 1 1 13.086711488238553 13.97937212508018 17.97401407493915
153 1 1 14.527507440282143 12.594200674625776 17.42839865262426
154 1 1 16.584878517511516 12.568003043937841 17.17000517508202
155 1 1 18.516733868781966 13.04976615122006 16.623163699096413
156 1 1 20.47258163921005 13.607036286807395 16.329567645686414
157 1 1 22.390871027267615 13.479160504781698 15.613246943831756
158 1 1 24.26868669523319 13.015644034093992 14.885241654768619
159 1 1 25.619001530336398 12.741152043916525 13.29619631487176
160 1 1 27.418826321198473 12.909884575178001 12.211182637123965
161 1 1 29.000806173216315 12.211372060257784 11.037927506037452
162 1 1 1.0433458208922646 12.114503986572656 10.67547415813861
163 1 1 3.0217719934945837 12.273999790735417 10.115796721321193
164 1 1 5.066377127229085 12.443731477313362 9.945209483896669
165 1 1 6.980641279305787 11.762376052569142 10.276851149796153
166 1 1 8.698945833859188 10.63395237306755 10.042711473413933
167 1 1 9.638940703770983 8.807501785767434 10.383301454952505
168 1 1 11.426359302293413 7.876283669671509 10.938282093761957
169 1 1 12.502018058152917 6.22930651932489 11.647327033186286
170 1 1 13.460222801194764 4.639495315779251 10.733452615339774
171 1 1 14.369335345749953 2.9538766223336648 11.523934216889055
172 1 1 15.022733972260497 2.203685651053526 13.328031274401566
173 1 1 15.576468388674638 1.0543556734281256 14.944555391735031
174 1 1 14.722793439637213 0.5449831393457497 16.74438962678527
175 1 1 13.896268630983988 1.2090176454814883 18.50919177260143
176 1 1 13.383686484400345 1.4435423877104878 20.487731143904888
177 1 1 11.909869955448572 2.697792404657417 21.21123079150499
178 1 1 9.935344230619817 3.156551051686346 20.801660664718167
179 1 1 8.675236727249857 3.847162987368289 19.325637618117867
180 1 1 8.096900911898334 4.982968929208096 17.687807729569787
181 1 1 8.05706042677862 5.7450398599614125 15.749121245955356
182 1 1 6.903643835546935 6.6874399968152485 14.277362495788783
183 1 1 5.044600535564373 6.688983402995315 13.330256689096544
184 1 1 3.36779290668269 7.593736631725852 12.48776214310057
185 1 1 2.253527993525257 5.850272249817719 12.280491669733996
186 1 1 1.407578523837278 4.118776129568854 13.060247586300083
187 1 1 2.301664899810341 3.984753103883036 14.925224288657148
188 1 1 2.3483833031813357 2.623902250332909 16.50640568663319
189 1 1 3.527595076135581 1.0816319052259273 17.269507811923923
190 1 1 5.160363025073583 29.83374008280795 17.64748999561251
191 1 1 7.029947518449066 29.01065503051317 17.252092371610424
192 1 1 8.582400886977597 29.808292864443416 16.12824141268527
193 1 1 9.805493826846895 1.3119211939135709 16.861246428050784
194 1 1 10.261332166645312 2.968969240239373 15.717928481728686
195 1 1 11.96519786625132 4.034509458077833 15.199766570932878
196 1 1 13.259423145346597 5.639893686348049 15.05053012421892
197 1 1 13.224831278883975 7.578334979319862 14.336914273900101
198 1 1 14.219652767428462 8.916540107102389 13.116236519310801
199 1 1 13.567635507913321 9.126459705008996 11.162329828518134
