ITEM: TIMESTEP
225
ITEM: NUMBER OF ATOMS
200
ITEM: BOX BOUNDS pp pp pp
0 30.0
0 30.0
0 30.0
ITEM: ATOMS id mol type x y z
0 0 0 21.796310699381312 7.588725202609607 3.9873088732491713
1 0 0 21.596397067760385 6.182634315422959 2.8838148611940926
2 0 0 21.81497114218598 5.423434948037977 1.2658291304891367
3 0 0 21.27643119060538 5.997657617820601 29.656069991894707
4 0 0 21.07906529272783 6.081781144974401 27.877919354198976
5 0 0 21.908914621260458 5.535084503597237 26.380883435423247
6 0 0 23.060818650063315 4.232219997762758 25.95624013728826
7 0 0 24.444522871524146 3.1743703113743265 26.307786957924804
8 0 0 25.92964459146034 2.2646741282123823 26.63663226285415
9 0 0 27.46026852770493 1.5264739755446384 27.15357021497974
10 0 0 27.96904228870474 2.2852521997708584 28.682908816537502
11 0 0 28.939610605787497 3.744945423098236 28.99314850152972
12 0 0 28.702352749910034 5.490059153635296 28.761860533345963
13 0 0 28.462426759391356 7.125775662523939 29.429843885020954
14 0 0 27.084511149260056 6.720217318982556 0.5100344899408209
15 0 0 26.340489222497663 7.594901526332749 1.8991194292688927
16 0 0 24.737382842793732 7.833353337856668 2.682966841028935
17 0 0 23.372734821580575 8.720913735761537 1.9270269167741834
18 0 0 22.105150598585237 9.933198945800743 2.2577879684050655
19 0 0 20.472543237629147 10.330939768601425 2.835333329595222
20 0 0 18.714558130632565 10.560065951656243 2.971493062257899
21 0 0 17.049044560352584 11.194788438800337 2.9704829479660475
22 0 0 15.26692232953218 11.236240697474697 3.125536754311345
23 0 0 14.955908006707629 9.797721111927375 4.135515034920824
24 0 0 13.800728369884682 8.443808390771643 4.10655542271841
25 0 0 12.731144387316544 7.146476639889912 3.524153020376749
26 0 0 11.995278612825766 6.019244375466927 4.701843193858183
27 0 0 12.76904652256253 5.127853560467768 6.048181603453343
28 0 0 12.47881417653567 4.549219991013651 7.713034701748261
29 0 0 11.542527428251688 3.545429779721714 8.85994263987873
30 0 0 10.339971973758475 3.0063748713794656 10.079244661828419
31 0 0 10.004693260914886 4.512897820061144 10.970214467939138
32 0 0 9.96504352037348 5.865308144738777 12.12938743111603
33 0 0 11.174650157318464 6.322662561148826 13.367874679528601
34 0 0 11.891465093847396 6.745471281773205 14.961961386519599
35 0 0 12.074628779403733 7.6896178911746285 16.47583800259462
36 0 0 12.93949762734697 7.282064216823837 17.995278463609022
37 0 0 14.105722805765756 7.6999894472981 19.295078694308106
38 0 0 13.05168599660184 7.1651282588166305 20.63693500299175
39 0 0 12.09729840813549 6.086745644164713 21.703454005069222
40 0 0 13.231706245418765 5.069849364585727 22.63318884447195
41 0 0 14.949817664692377 5.573834991466686 22.5476756801867
42 0 0 16.18142138864693 6.4272331634410715 21.56347484673746
43 0 0 17.79176180283696 5.697103608941184 21.276230051818192
44 0 0 19.254090966472027 6.511219587420357 21.90863123786487
45 0 0 18.42754623415098 7.420084834181834 23.203497288326783
46 0 0 17.93375606030617 8.631083838066221 24.421603922942737
47 0 0 19.33395045354956 9.605398465331893 23.87845612393552
48 0 0 20.557662056453587 8.956493837898257 22.741619826655118
49 0 0 20.699656164080995 10.396577615907065 21.69483737792591
50 0 0 21.92669064583061 11.264936404551891 22.67069900128118
51 0 0 22.169255911265225 12.926547962591021 23.303381975975686
52 0 0 22.65138741237091 13.872424517813752 21.856806929797592
53 0 0 23.838914298019024 14.615764391406122 20.73512807696035
54 0 0 24.72332943128725 15.386100440005746 19.37762382269366
55 0 0 26.28696245720898 15.90429266052935 18.678178967628313
56 0 0 25.379521010032406 16.878252133519993 17.488196081865865
57 0 0 24.808255726288447 18.477788765703412 16.93103022578011
58 0 0 25.575801015078927 19.418332428169442 15.615983251858173
59 0 0 25.27606481814022 19.521819905352423 13.856223037033724
60 0 0 24.549295257785456 19.981997932898157 12.288407429426611
61 0 0 26.071108709983896 19.821453140320394 11.371058666890166
62 0 0 27.327050005478096 20.341476095987048 10.215119171945144
63 0 0 28.69630653155458 21.159273143157016 9.406122048026155
64 0 0 28.383287297589586 22.678062959122762 8.518359415188893
65 0 0 27.260926102972746 23.23292047266933 7.247064464946896
66 0 0 25.78033260872049 24.19215953640187 7.503637443437166
67 0 0 25.0915044828228 25.667537427078525 8.238789196146445
68 0 0 25.41908315445801 27.16778236830689 9.155570632401359
69 0 0 25.976352952076514 28.7493085948289 8.518723089686963
70 0 0 26.037871000846796 0.2596843345431538 7.559696482045258
71 0 0 26.022246764044077 1.80808029896608 6.670176231979111
72 0 0 25.312851473693335 2.7910024956851958 5.357646630094593
73 0 0 24.97309847341409 3.6008306943585398 3.8002329134863655
74 0 0 24.572462651292803 4.637442436506492 2.4010937144458255
75 0 0 24.23418113249548 5.585312507375793 0.9264325383759776
76 0 0 23.597751037263347 5.916813997860412 29.29012115711651
77 0 0 24.838120353801546 7.186886509274058 29.065211861235316
78 0 0 24.15841045006219 8.755920204790641 29.560658211870727
79 0 0 24.662445883621697 10.399231408370268 0.03165317683727375
80 0 0 24.893943520319056 12.151230958434175 0.3066218149217337
81 0 0 25.586518408486025 12.727211231812955 1.8534286070343948
82 0 0 26.377737952358697 13.020811420439543 3.436962818190524
83 0 0 27.184834047586243 13.152122806422296 5.038164492075466
84 0 0 27.898584601859156 14.41833337731322 6.086494547685701
85 0 0 27.8891576665546 16.181098245607117 6.364630838077303
86 0 0 27.633194896267806 17.91021091696194 6.690597418761518
87 0 0 26.828853221730775 19.425610095491518 7.166182995174193
88 0 0 26.448852945367847 20.895603976554924 8.09946639100427
89 0 0 25.984557640036876 22.225984695582888 9.192775829440135
90 0 0 26.00074610060358 23.894530311084253 9.823228950539251
91 0 0 27.291250962871057 25.041541702982993 9.366271766560377
92 0 0 27.60429201626193 25.84953748393098 7.803309480936219
93 0 0 26.739969724375772 26.838796474520187 6.593776059883028
94 0 0 25.08074320420872 27.500605989554813 6.599679023846084
95 0 0 23.66899138065053 28.054387641438574 7.537846592029049
96 0 0 23.14161974639224 28.77953270639833 9.08295478060236
97 0 0 22.170573299992284 28.78303902825998 10.591471107211149
98 0 0 21.486663370195828 28.60592443277161 12.247759909355782
99 0 0 21.17553342426644 28.258486926789253 13.987782553708833
100 1 1 25.61783913740355 5.161056221066535 16.67489137334907
101 1 1 27.20203936060683 5.485406055727221 15.362345481571277
102 1 1 29.06725735777126 6.328554224731083 15.628711380143068
103 1 1 0.15098781191082633 7.014540494084599 17.240042279162726
104 1 1 1.9551193395828124 6.4362199630586225 16.38026487600936
105 1 1 3.5473684528004115 5.36965883560821 17.170907453885736
106 1 1 4.798560354452528 4.370096478712531 15.876770839314021
107 1 1 6.20070534082975 4.059061932740708 14.408867333975083
108 1 1 6.557304481128576 4.38198994951778 12.423672311550241
109 1 1 6.843343205100715 5.742005423241251 10.860927209026746
110 1 1 6.941251854830669 5.04426489046017 8.906436746126237
111 1 1 8.066521048231268 3.695224263077782 7.877228372089676
112 1 1 9.057119389642473 5.440320861076331 7.623094224504234
113 1 1 9.431393668336533 7.099943750643633 8.829299666264971
114 1 1 8.935172483908909 7.627458439900921 10.771029963770195
115 1 1 8.545682174968226 8.467434670209302 12.607473285685124
116 1 1 8.15282152982098 10.002911818509478 13.931525731419255
117 1 1 9.398297149904309 11.596737137186544 13.579596225423884
118 1 1 8.824335430361863 13.503906575226571 14.212233088057552
119 1 1 8.812151022742473 15.425566654449177 15.021177478393232
120 1 1 8.30764075097294 17.40362558111206 15.331183291208427
121 1 1 10.202689126346561 18.164176479896245 15.47389700076272
122 1 1 11.13842080401355 18.717071119434728 13.742890521332917
123 1 1 12.577031136294726 17.28518435318824 13.397965311757861
124 1 1 12.93660161197294 16.743418934678914 15.339652014985653
125 1 1 13.441419308833304 15.417701384606481 16.848397167854024
126 1 1 14.995374948209118 15.548448326096096 18.191777484938974
127 1 1 15.296431301226992 14.279020554755594 19.776745524108808
128 1 1 14.07331831223278 12.956710258570533 20.755623338972054
129 1 1 12.071920506884158 12.447594771672291 20.701600347503206
130 1 1 10.132920579260821 11.931776743665306 20.217544814720778
131 1 1 8.31820759216985 12.445391891153415 19.372961439240154
132 1 1 6.47472165611509 12.506557436834067 18.40960144422796
133 1 1 5.844265603006349 11.667873501117919 16.61723587987945
134 1 1 4.652283425918336 11.337963733519043 14.96913658883244
135 1 1 3.6410324490886787 10.776136072693648 13.270967448743622
136 1 1 5.48097998487422 10.570012522659592 12.327895952673192
137 1 1 4.812544768819045 9.957601462211219 10.459241044621134
138 1 1 4.077814878647026 9.821482619484348 8.515450875769405
139 1 1 3.7865616424005935 10.248533911596427 6.504431422634997
140 1 1 3.1577507731481282 10.543157676603501 4.561948836352102
141 1 1 2.647358473054515 10.85237696326204 2.597112254018818
142 1 1 2.0190650242838557 11.401529385439721 0.7270014900508485
143 1 1 3.0637836192289334 11.256458478439663 28.94228824291029
144 1 1 5.09162495123801 11.105410039253634 28.526344055708837
145 1 1 7.09373667206467 11.532914486949085 28.258895066464007
146 1 1 7.793768083973368 12.71662379647081 26.715004354947894
147 1 1 6.881903839433209 13.974113798966274 25.34260394033422
148 1 1 7.624227053550981 15.152888920973387 23.80450645292274
149 1 1 8.841208997755162 15.37590513732345 22.158582339610263
150 1 1 8.920635299294752 15.173872160192294 20.101063347130157
151 1 1 10.6170200476584 14.92718714729432 18.91141866702802
152 1 1 11.343678225941229 13.348266176629583 17.75033975947981
153 1 1 13.254581225959495 12.926506800118414 17.0478098838
154 1 1 15.293874813390435 12.761715683850884 16.65178550670268
155 1 1 17.169491696852038 11.940878214830294 16.331875025194137
156 1 1 19.16839592449447 11.460544492057586 16.187825892388435
157 1 1 21.027055696318094 11.640213873709374 15.305840090706447
158 1 1 23.047913781639938 11.827617031330933 14.88559527248007
159 1 1 24.94887465805774 11.959677826248459 14.02359136558453
160 1 1 27.007941146710323 11.849523567429097 13.575475890200881
161 1 1 28.91961030811589 11.768434583205606 12.76065738956699
162 1 1 0.9369963730475244 11.793087402149737 12.37821831242373
163 1 1 2.463247037275235 12.219122400922066 11.037040345112631
164 1 1 4.241645582160546 12.42053516415806 10.000971643568699
165 1 1 6.193431268511391 11.883462071119423 9.57866678021462
166 1 1 8.10984970346245 11.440520934146925 10.214526165605808
167 1 1 10.087685510727628 10.943538230698644 10.560391258602651
168 1 1 11.559698215759724 9.550951139295746 10.15884591684532
169 1 1 12.102377366100688 7.579022722484074 10.44398296182982
170 1 1 12.590178715239876 5.6045986829456265 10.791706267503825
171 1 1 13.165416808435342 3.7313560025472308 11.421489614184596
172 1 1 14.216050588295463 2.058526862496191 10.79803166555817
173 1 1 14.374480283505106 1.1351240590784621 12.645624750064608
174 1 1 15.57588172830811 0.4904019384392607 14.181353952201333
175 1 1 16.72741838666885 29.916862637733093 15.777383285860315
176 1 1 15.072505950047153 0.7904423272861484 16.701420215406763
177 1 1 14.344667621736736 1.0376619692854838 18.633404692501355
178 1 1 12.87432575229294 2.104965560193233 19.631723371906016
179 1 1 11.522040047636764 3.413291778430164 20.482332373415854
180 1 1 9.679697608028745 3.6669603525436067 19.58172132896789
181 1 1 8.80846228220535 5.362446762764877 18.806454239971234
182 1 1 9.82695126634899 5.876587063327123 17.08823553253934
183 1 1 8.60255160348969 7.5183477068824445 16.77462887432264
184 1 1 7.129019684945287 7.4908922492311865 15.330236812587861
185 1 1 5.932941314547973 6.692736537413583 13.85008565731646
186 1 1 3.9340360132919 6.5120018075147925 14.394921993172211
187 1 1 3.0474207881419124 4.633583761461592 14.09561310543631
188 1 1 2.6005807222414856 2.860479965174939 15.095463214268444
189 1 1 2.6364910997250153 3.048874812809159 17.146211877826172
190 1 1 3.109191638597705 1.0563536765427843 17.442573369373978
191 1 1 4.648084745909405 29.677017752081348 17.245530390691442
192 1 1 6.717344424470767 29.51950623693333 17.337412241453535
193 1 1 8.230496940665631 0.027150988504408197 16.00165711999783
194 1 1 10.151506778414749 0.7627811274183476 15.75549101291897
195 1 1 11.091337927126306 2.405513843417553 14.918789968374526
196 1 1 11.948759110953283 3.994493576879765 13.922739749034813
197 1 1 13.63148276162267 5.1535146494150466 13.613800202329237
198 1 1 14.09694168330162 7.174329221414898 13.770470407091784
199 1 1 15.049100136802814 9.018540836876564 13.916532901518762
