ITEM: TIMESTEP
236
ITEM: NUMBER OF ATOMS
200
ITEM: BOX BOUNDS pp pp pp
0 30.0
0 30.0
0 30.0
ITEM: ATOMS id mol type x y z
0 0 0 21.678732641005038 9.266497304474498 7.532305111471666
1 0 0 21.149434209540892 10.040563301919285 6.007829374142045
2 0 0 21.078582997490056 8.33046076205436 5.451846860135503
3 0 0 21.29359593388098 7.260917477877753 4.021686602166717
4 0 0 20.946133560311296 8.811570812679062 3.2271067490512526
5 0 0 20.78492383859794 8.355138643759306 1.5050074166983425
6 0 0 21.54035364198558 7.149563065324747 0.42604484747298677
7 0 0 22.121817014694095 5.873364424643766 29.320767862538638
8 0 0 23.178223703337174 4.4425987375705205 29.124071994320584
9 0 0 24.469412266673466 3.852039496709304 0.2198758804884213
10 0 0 26.066193357999037 3.050636083461313 0.06541821865740738
11 0 0 27.03747006545024 4.464342347321539 0.5907770243112486
12 0 0 27.737450122292053 5.889467201147284 1.4214060513722864
13 0 0 26.888762682603506 7.231287519936596 2.2610291244051703
14 0 0 26.264001656527217 8.522355608619396 3.3488515426387346
15 0 0 24.901170112805648 9.655923927658542 3.580946162941233
16 0 0 23.206785456458864 9.585331338651931 3.0222383167397275
17 0 0 22.18721809627453 11.056761973541029 3.125749856549272
18 0 0 20.683150380778095 11.472554656992939 2.2609179518329823
19 0 0 18.958990517101633 11.334486420602342 2.7050360164249425
20 0 0 17.55125153374351 11.086963096339186 3.778200552123658
21 0 0 15.965028886233755 10.323760360960655 4.038176844507163
22 0 0 14.458257446272306 9.390693009349045 4.167878654096132
23 0 0 14.482065859642868 7.725425035351624 4.771434584738061
24 0 0 12.837365468621398 7.066466021389159 4.991176207152416
25 0 0 11.86157230680578 5.677364303414031 5.5649114237301
26 0 0 12.86763414361399 4.313842123754688 6.134361134922281
27 0 0 13.231821634660013 4.010411122198503 7.861019280804324
28 0 0 11.476112645146035 3.9010209449003392 8.119539324668793
29 0 0 10.56678468668899 4.0355926990974105 9.64394341466792
30 0 0 9.788873185797492 4.093643724420849 11.247301179011945
31 0 0 10.138987583518608 4.684261542956318 12.892205655946876
32 0 0 10.686634654762283 6.037860905592894 13.921595471931246
33 0 0 11.271250991419818 5.8535410854837595 15.616241992861452
34 0 0 12.246101276536582 5.204372311374096 16.9864496954941
35 0 0 14.00694705826749 5.341288733657218 16.675468596992612
36 0 0 15.382624993964598 6.169504665563443 17.45712813733837
37 0 0 14.367916628616461 7.516271976508714 18.06748388463726
38 0 0 14.29046286352524 6.7579016344193334 19.672870053854737
39 0 0 13.390083286088009 6.40367167014361 21.17259274747049
40 0 0 14.479002145039168 5.251523869602223 22.000795902780695
41 0 0 16.058401377105724 5.243521656083662 21.186010437002018
42 0 0 16.592256231398004 6.200625132200094 22.61140149121103
43 0 0 18.183745163638427 5.755600439693257 21.942188322643723
44 0 0 19.40891578646099 7.047062193054079 22.088639374603552
45 0 0 18.825084439316676 7.157373368908272 23.772038611738626
46 0 0 18.946576767231715 8.932392982500959 23.61049424385023
47 0 0 19.59980580561522 9.994061183158538 24.882656651267805
48 0 0 21.30506224393515 9.462340207786287 24.753531152545985
49 0 0 21.705301866781557 10.379248039270408 23.277409177962742
50 0 0 22.442865327962263 11.430471819435667 22.03746022884454
51 0 0 22.961027072591538 12.435665054739955 23.42351254931427
52 0 0 23.464799131977163 13.92423628262749 22.561942433152876
53 0 0 22.87794888095278 14.705958754664435 21.059782352113483
54 0 0 24.44505141444402 15.03479514156687 20.258557030925456
55 0 0 25.783251374543333 15.66999299092933 19.252413208633396
56 0 0 26.214982277892567 17.32159554776891 18.741482920464282
57 0 0 25.431087889949673 18.82064111272222 18.193744276898567
58 0 0 25.526048387735003 19.25825319701161 16.46421757989159
59 0 0 25.53460380892664 20.253315962958833 14.975496406984385
60 0 0 26.397942913965057 21.152800917942624 13.68632048188807
61 0 0 26.979812022224685 22.375951582142736 12.515912605325665
62 0 0 27.85624822795281 23.22559580125056 11.20779710540008
63 0 0 28.467976978317303 23.38660387162643 9.532224721843162
64 0 0 27.39324010582583 24.418094382109864 8.535433793527554
65 0 0 25.96095336606679 25.457262869002108 8.287662186424585
66 0 0 24.805761877966653 26.355572595309155 9.311647710051158
67 0 0 24.571786318252094 26.916227451618244 10.996494094841852
68 0 0 25.60541901717186 27.94572507865026 12.03831700410528
69 0 0 25.848044722617626 29.710271765938035 11.849004784266429
70 0 0 26.105436656920066 1.0121046799461153 10.644144174578837
71 0 0 25.383504132954823 1.3591940302866437 9.034366993722758
72 0 0 24.9483517825658 2.216223190892129 7.513961198966479
73 0 0 24.932613816893998 3.284409782714412 6.074369810450319
74 0 0 25.064045153746914 3.860554598017462 4.388360437531656
75 0 0 25.10580177999015 4.367151096120166 2.6778109809243245
76 0 0 24.56039612638357 5.99566514655458 2.1724818033060305
77 0 0 24.628208913433507 7.218354988706403 0.8621446355905823
78 0 0 25.13192024024734 8.921062961162583 0.6433439870118361
79 0 0 24.976141622333614 10.653292153132066 1.0305974623308898
80 0 0 25.212744152038017 11.805212744918673 2.3625110033703103
81 0 0 25.460921918827815 13.123851548561792 3.5339881449208144
82 0 0 26.062764798053035 13.946998584615502 5.001074330270882
83 0 0 27.467143337511974 14.384828957991408 6.017406680473543
84 0 0 28.341206558103217 14.951501835985043 7.469927426395381
85 0 0 28.802924771949513 16.296985713935083 8.560459396012355
86 0 0 28.503455204893786 18.04516614861877 8.834266832789993
87 0 0 28.184945487496094 19.794787331496945 9.049490465156895
88 0 0 26.67022052343227 20.740635255447202 9.00447967663846
89 0 0 25.23799967232164 21.750713058337464 9.346663473112752
90 0 0 25.648562223570707 23.46125849514291 9.648318449658136
91 0 0 26.10490774075689 24.752096452706763 10.791280050954766
92 0 0 27.062899774146327 26.241952100014036 10.564470458236624
93 0 0 26.654477866950238 27.903897145140082 10.02469416103667
94 0 0 25.23209515688633 28.89010265393698 9.553309148841127
95 0 0 23.746789310622233 29.132610052272657 10.515688671217957
96 0 0 23.252635877453194 29.07932072221393 12.236590906501295
97 0 0 23.416705071304534 29.076751723423918 14.023742038434852
98 0 0 23.889768552082412 29.435067505390283 15.712991817813021
99 0 0 24.650182445106243 0.9568221297335292 15.164312171502107
100 1 1 26.794785176794054 6.9124835905505835 13.907360070966075
101 1 1 28.33471064806213 8.100793728367432 14.592518004825722
102 1 1 29.22286354693329 7.896986378951571 16.461368303586166
103 1 1 1.184773184521107 7.2733602618272775 16.76849974787929
104 1 1 3.2424646196418343 6.876333199552967 16.720452721523113
105 1 1 4.751069522242865 5.492650117914912 16.400360208964127
106 1 1 5.211602195837346 3.7133405115922367 15.46903564852677
107 1 1 5.998500126914449 3.258267545372965 13.590302266611715
108 1 1 7.500407377079789 4.733143853406855 13.25619659128407
109 1 1 7.528858834512314 5.0006527965760466 11.199819101490952
110 1 1 7.698738020036128 3.7178745271117704 9.55192229668605
111 1 1 7.764800579528367 5.493734756694465 8.445778431146953
112 1 1 9.677932317060183 6.119471912248553 8.96394102506731
113 1 1 10.124799247983496 8.154286372926027 9.223327732726354
114 1 1 9.884723297447376 7.420278979975801 11.142572017350707
115 1 1 10.116229580961283 8.529095256307492 12.899489309218282
116 1 1 8.972214747706438 10.238149916068403 12.895829855814052
117 1 1 7.523661187970017 11.640073462575543 12.744242819183038
118 1 1 8.184319915291203 13.468587999228605 13.46173004354536
119 1 1 8.72892158237201 15.363752183457345 14.237570492863444
120 1 1 7.821492266460694 17.228565665941908 14.59428722356459
121 1 1 8.952425223920795 17.553767201814175 12.889608684833101
122 1 1 10.952182006366856 17.23230567469791 12.430304151434584
123 1 1 11.51507145280896 15.70598170158059 13.709181889604384
124 1 1 12.550387316251147 15.838590480867047 15.48044846336107
125 1 1 13.556261053160455 15.587227400448397 17.278405827846953
126 1 1 14.526364364771904 14.323867722171707 18.589935038636813
127 1 1 14.78931264502553 13.101143364514131 20.230188875620275
128 1 1 12.944628843418867 12.257256888297125 19.84614116151249
129 1 1 11.1748592570365 12.410856403667497 20.887376511223163
130 1 1 9.764577539579019 12.457483271583497 19.394283392305027
131 1 1 7.934286520757188 12.226283582537413 18.470869866427385
132 1 1 6.063892924435326 12.218732295492503 17.583482755432954
133 1 1 4.559159150507594 11.251837104087679 16.565198946895535
134 1 1 4.5999759844456225 10.322315127137877 14.696902801221086
135 1 1 3.926570070333905 10.5776073695595 12.721021586810663
136 1 1 5.7107469945609095 9.906209236342828 11.942355007816815
137 1 1 4.716390071599279 10.056072707162732 10.133086133856217
138 1 1 4.090603160875405 10.478686753954888 8.183827232472494
139 1 1 3.0168130063818945 10.53438519193267 6.382104723830163
140 1 1 2.444255693630916 10.593930027611846 4.383825747600009
141 1 1 1.9235781276895028 10.531854672864855 2.3861459943393513
142 1 1 2.3005986522595903 10.507332131774167 0.36006279081327514
143 1 1 3.8364453070698112 9.797891615974123 29.19107532477034
144 1 1 5.8121744066396985 10.316053757240347 29.472694686519635
145 1 1 7.357340607466498 11.45280529519385 28.705706511531712
146 1 1 6.623639116669977 12.988609700803245 27.531069548937676
147 1 1 7.283302684290193 13.959707766504948 25.8056645894648
148 1 1 7.938297157317721 14.11157725283916 23.82949584214392
149 1 1 7.691035112219405 14.926214174498172 21.953779546433253
150 1 1 8.691510202052429 14.735965359377882 20.149954525553305
151 1 1 10.528610149386884 14.917307612480815 19.201562508672154
152 1 1 11.984944308473967 13.815096351591253 18.210114817263072
153 1 1 13.359772149921211 12.501359161685153 17.392260896501316
154 1 1 15.26623822256896 12.142206850194261 16.685883599935007
155 1 1 17.169295143089247 12.008287661001845 15.91410568044836
156 1 1 18.99041579007491 11.643701938037195 15.005224736782143
157 1 1 20.95751962252197 11.029223086150369 14.76466037105665
158 1 1 22.97570289211381 10.935907313126403 14.330616454567082
159 1 1 25.048576496368174 10.89247424122611 14.413350832102443
160 1 1 27.066966360046656 11.32363370300049 14.270817232775116
161 1 1 29.050672833134467 11.78541141270231 13.997336894819332
162 1 1 0.044059854361079995 12.532168365252629 12.311710389607844
163 1 1 1.791659451429538 12.833273571321307 11.171314083330616
164 1 1 3.5811962513721918 12.694245636747969 10.104198918995499
165 1 1 5.627993547576825 12.720031892520366 9.768909430087826
166 1 1 7.562623560481319 12.004331836341336 9.52216255902359
167 1 1 9.024059075719968 10.536483138377788 9.731476922477668
168 1 1 10.921972392722015 10.19469730765034 10.50403214278827
169 1 1 12.7623291791775 9.249651762840548 10.533115433770183
170 1 1 12.660105232736429 7.173934642294321 10.310921971985898
171 1 1 12.323658378427044 5.308953923977527 11.16869360197333
172 1 1 13.183830180311034 3.4610501511711127 10.861802551359764
173 1 1 14.347802696698349 1.8825362096304383 11.465104384558034
174 1 1 15.53155012485896 0.5838872001522832 12.543865566289076
175 1 1 17.041795586325122 29.9970869072403 13.824673809168281
176 1 1 16.235055162281878 0.05284181577315165 15.730246060388316
177 1 1 14.842212670043049 0.7863739140802952 17.08118406935424
178 1 1 13.95860993052999 1.7444191845914014 18.704750169099125
179 1 1 13.153139006819156 2.796705095987198 20.292475119470545
180 1 1 11.199314098435362 3.5079996187273297 20.484640916183285
181 1 1 10.21370294030962 5.228971712451443 19.94379141142255
182 1 1 9.505091078588407 6.456526203204533 18.452288888590868
183 1 1 8.235616187392301 5.6240270059697846 17.029555485828723
184 1 1 8.08085048939149 7.0637819984579195 15.54973227301079
185 1 1 6.3036464460528485 7.569032077246801 14.602664595279032
186 1 1 4.647945795094325 7.143114517081163 13.427586106664988
187 1 1 3.59163674789373 5.541994958018796 14.244753107269034
188 1 1 2.1151651565051943 4.308847292198236 15.059720654708608
189 1 1 1.748447527829305 2.2684782418144906 14.770059562703864
190 1 1 2.3391347779905245 1.2644091417790233 16.50330267501873
191 1 1 4.051434353849663 0.35843091531898863 17.28856532000121
192 1 1 6.06866405309983 29.835309209046443 17.250339065393806
193 1 1 7.768664995477952 0.18589563394231992 16.100822592490676
194 1 1 9.628226208377876 0.10195114325006269 15.169051172451155
195 1 1 10.977463477595082 1.5578987991566255 14.536421930101874
196 1 1 12.52793107746034 2.9207528822160778 14.416897957842556
197 1 1 13.272973194825894 4.736431426210913 13.782859317692818
198 1 1 15.07673084282356 5.6438426561431445 13.373305319892276
199 1 1 15.094548700918967 7.180502791267818 14.758481762500955
