ITEM: TIMESTEP
24
ITEM: NUMBER OF ATOMS
200
ITEM: BOX BOUNDS pp pp pp
0 30.0
0 30.0
0 30.0
ITEM: ATOMS id mol type x y z
0 0 0 13.999084699694667 9.157055466685222 16.188798194028106
1 0 0 12.287954439910274 10.124810884524095 17.416338955157205
2 0 0 10.526840793630473 11.2482791641188 18.713772689331105
3 0 0 8.424509854351282 12.054369064390155 20.0961693400208
4 0 0 6.224391457488409 12.487371344138399 21.599808016921465
5 0 0 4.384608327315089 12.585583128711095 23.505470243912207
6 0 0 3.5964838321927304 12.608790993063014 26.03569323332765
7 0 0 4.122643774197974 12.878407842189889 28.846391970631284
8 0 0 5.419991241759521 13.446428090850077 1.6701230336969237
9 0 0 6.942222213624531 14.217869273329057 4.44417996332168
10 0 0 8.197066139700276 15.023551112431745 7.129183171592761
11 0 0 8.590033634170615 15.59565496600718 9.732040230452366
12 0 0 7.383326419190348 15.529730678960647 11.91081650021757
13 0 0 5.134267919598351 15.117866733354411 13.270145424013302
14 0 0 2.544373546260325 14.820928292198383 14.312447243783824
15 0 0 0.06590269554944507 14.87347307039172 15.407564168625159
16 0 0 28.223849592473602 15.445679966654302 16.8154864026002
17 0 0 28.23403601201239 16.710665652528334 18.563687837677023
18 0 0 0.17391795429857976 17.92101606935219 19.518373711470918
19 0 0 2.8434061306638445 18.959468906374184 19.958886186681468
20 0 0 5.6624765695324495 20.005127927957307 20.311654275265692
21 0 0 8.03586384571846 21.27328337238867 21.123319986991756
22 0 0 8.914387719805037 22.75094588608347 22.960523707706475
23 0 0 7.459123980125907 23.73801427307852 25.364090889403222
24 0 0 4.656762216918877 24.096902736286697 27.973781041830367
25 0 0 1.0675798188619827 23.947357389385175 0.7663298344360074
26 0 0 27.163054114542025 23.43492883384777 3.5973614877750215
27 0 0 23.383067117089844 22.75597620464434 6.240010208863607
28 0 0 20.055724735187514 22.118319664239014 8.444594673771872
29 0 0 17.289621973960482 21.70800782837375 9.969631271012203
30 0 0 14.921545015594406 21.7934565649092 10.489381578930915
31 0 0 13.650927912420483 23.53768831980958 10.951444973580204
32 0 0 13.562364182254312 26.23244946204576 11.14528070656297
33 0 0 13.907398168570122 29.674699859608207 11.56524356398917
34 0 0 14.501285605842444 3.8379943883307175 12.20272496144139
35 0 0 15.257278304985748 8.513525883000288 12.969816142077985
36 0 0 15.812226349949452 13.732279579084917 13.713640182886419
37 0 0 16.281326345305445 18.044143088408216 14.217574213990567
38 0 0 15.049034381585097 19.937520672140117 14.600660560162765
39 0 0 13.148605670498402 20.270585544437875 14.461050084990351
40 0 0 12.248526698115166 18.745320869434426 13.79072246353313
41 0 0 11.084743682699717 17.19296694203247 13.602006617694702
42 0 0 10.248352653725151 14.923371723443184 13.448530846189193
43 0 0 11.331379681357884 13.511485531793936 14.99666744098186
44 0 0 14.170093608589879 13.16112248687549 16.169316596180007
45 0 0 16.139354003737836 12.292329560889641 14.329538306973284
46 0 0 17.403760358125894 11.64832976003204 16.53053192391678
47 0 0 17.219565288090287 13.888640172844527 14.603585055671493
48 0 0 16.56815845158303 15.59646072176217 12.991941404236169
49 0 0 18.594861610696928 17.16190688537495 13.725307965013451
50 0 0 18.05511667076888 18.255456842189393 15.230459232150752
51 0 0 16.32576556608951 17.751225771927 15.888135055901817
52 0 0 13.36810766132377 14.627122618413628 16.627107841666955
53 0 0 15.661777367781411 13.687725905966333 15.371811572878263
54 0 0 15.78812083616 15.062024152822444 14.591157244917737
55 0 0 15.53772315997268 16.2968417990461 15.541017907287051
56 0 0 17.058819224596892 17.0822525891012 13.214741816794303
57 0 0 17.798116303058464 15.2944882792118 13.911064773494411
58 0 0 18.712731735051392 13.068848772007222 12.040272801270614
59 0 0 17.151147554218912 12.318607082876921 12.100342714338954
60 0 0 16.063014659075503 11.955738321958128 10.103419871622224
61 0 0 15.53204108843089 11.700067216073363 7.106735554945033
62 0 0 15.440375417228458 11.498977651931702 3.484931852183178
63 0 0 15.682546611181042 11.383905573816893 29.236419972709413
64 0 0 16.192694075419805 11.464646231988123 24.704550428502714
65 0 0 16.8449146276411 11.81142892424689 20.021025690484276
66 0 0 17.497573850245722 12.463590081878198 15.239365154367581
67 0 0 15.66997848498542 12.839000302523436 12.490443030367905
68 0 0 15.2945825072092 15.442740622960468 11.980474949904005
69 0 0 15.681156270165765 16.570243219131115 13.99813762998615
70 0 0 16.205408816850397 18.540234540158323 17.89341643469299
71 0 0 15.908954633152915 20.05549346334072 21.261046611413803
72 0 0 15.410417033563446 21.79135224458984 24.348704413380787
73 0 0 14.88078098928964 23.734488239096923 27.05067437926903
74 0 0 14.540230537735717 25.947381846299773 29.17873813393046
75 0 0 14.528479708225575 28.482601194943445 0.5163139707529243
76 0 0 14.777629729881303 1.1981163805815778 1.1982632210306663
77 0 0 15.080494873488291 3.99080163850412 1.7733605812507551
78 0 0 15.291042734061879 6.856642859472667 2.441910556493527
79 0 0 15.33126742598676 9.820976450750347 2.9158652289564286
80 0 0 15.08559527867867 13.099587739218656 2.76635563451496
81 0 0 14.651976067175793 15.94169090043698 1.5190488881888382
82 0 0 14.128634129467185 18.134371206291814 28.952662024580224
83 0 0 13.691796210368972 19.46025238168004 25.359509703814318
84 0 0 13.496024935780753 20.00075722261091 21.090828507120566
85 0 0 13.692841149884977 20.179633578561365 16.40631980716657
86 0 0 14.714808305933724 19.38758317346828 11.973424553805904
87 0 0 16.451181277107505 18.250760517224993 7.949281710305136
88 0 0 18.687052520766073 17.176481122512456 4.319724355713523
89 0 0 21.244832439825483 16.11582226224308 1.1331314883111612
90 0 0 23.8849624487027 15.125110120980024 28.33335585122142
91 0 0 26.40088086639986 14.312798545423641 25.787286071553595
92 0 0 28.704714349904403 13.805236727124544 23.430554368732526
93 0 0 0.851525062972454 13.663734890443141 21.358677188011242
94 0 0 2.982413426670075 13.813648664066914 19.79887881432197
95 0 0 5.19295413977867 14.026001795395064 19.024202098629832
96 0 0 7.342686755286737 14.017478501669322 19.142363215824027
97 0 0 9.27202023596298 14.196100507211465 19.711004372054237
98 0 0 10.324891066967918 15.82193218655508 19.703756506698955
99 0 0 9.814652261788122 17.57207764826823 19.423750345835444
100 1 1 12.276896893271626 15.806600039379548 19.078092323002146
101 1 1 14.001362172763049 13.36395494455715 19.35239876639149
102 1 1 14.970775195189296 14.588610724843544 16.617157641774803
103 1 1 13.111756241040732 13.497097330898043 13.324871586504301
104 1 1 16.097873751670836 19.66444651399568 9.548257188714535
105 1 1 21.472521918823734 26.215331893292873 2.4224589648788464
106 1 1 0.1611335113394343 4.319328714507615 23.914155186070328
107 1 1 8.50118728547679 13.463797641801118 16.656789965341208
108 1 1 14.850769940833123 17.53678761183447 12.680007948431
109 1 1 15.039415203481795 15.373556617784395 7.071830300884128
110 1 1 10.697069462344116 9.840850821695762 4.006376601472807
111 1 1 7.366509541446707 3.356087175884193 7.297440169811266
112 1 1 8.11233355135115 0.6141497609306773 10.604756591335299
113 1 1 6.566378486503105 4.984866078067335 6.7776741447894855
114 1 1 9.206086433261452 7.780839450973193 1.2015025467033942
115 1 1 13.633303698472647 9.706878577331548 1.5612018927971227
116 1 1 13.297200958499271 11.850286777320218 5.066996059078184
117 1 1 15.637511835050429 13.85128558265953 10.790240938247292
118 1 1 16.96036073930418 10.860181632128478 14.93570955847394
119 1 1 17.357406641023733 14.083929466210511 12.614614814572088
120 1 1 17.226707658990335 16.446059717344927 15.071480863802478
121 1 1 11.158606806933696 17.354237896991265 17.68682875567441
122 1 1 8.493367750411727 18.916772872276923 20.352030215470172
123 1 1 11.944376846091169 14.872272863324214 17.422825239037326
124 1 1 18.881123668556953 12.45498804314895 13.925151104640863
125 1 1 20.31611207065652 16.430839422131783 17.057973795154496
126 1 1 19.416388874211634 18.803774866862632 21.076198397042493
127 1 1 15.551028470423297 15.529493749092548 20.545434026249445
128 1 1 14.053995615668287 11.530569639961293 19.10631493272893
129 1 1 17.631685977551616 13.713936129887658 16.405005057570712
130 1 1 15.47315904842681 16.986156046550537 17.146762625950245
131 1 1 14.722698788702663 17.658171234625897 14.983602388409674
132 1 1 15.876212493921868 14.790750615755945 18.23950907163567
133 1 1 21.03878359254908 13.428628871117944 16.267105569134834
134 1 1 19.22862241946984 11.70239186674328 15.801349592799877
135 1 1 16.443340633381023 10.887615712454025 17.956471718818143
136 1 1 15.223781757945583 12.9027624020097 17.667685889907577
137 1 1 14.381720710617373 12.598005949167964 14.551444269633052
138 1 1 12.223072069412641 8.610063854678032 15.096778759507277
139 1 1 11.210092324330075 11.028700068360163 13.153544052974585
140 1 1 13.057244829719409 14.034965665172015 15.16676164236751
141 1 1 14.516670172290633 16.466363393773484 18.728979603618793
142 1 1 12.259912126637904 18.812953394199397 18.388687041062607
143 1 1 12.214493654949683 16.711170244657403 15.6220703350814
144 1 1 11.78892933335936 16.384069150816742 7.914704787949641
145 1 1 12.451623611509568 13.552908159957743 27.779359637981095
146 1 1 14.351164807010495 10.33703910062354 17.766677088663485
147 1 1 14.244961475883803 10.131136283459712 12.88905628030583
148 1 1 14.03356889856903 13.122636941792038 11.808215422632971
149 1 1 15.652232737979643 12.089842491845891 15.99626396565158
150 1 1 13.904027401166966 16.142681080604365 16.439903488555043
151 1 1 8.50715954730443 16.070750337116188 19.108917118095093
152 1 1 9.735297568460501 15.188169520425511 17.92316778229012
153 1 1 14.224145936528718 18.243031935700373 18.163188890458553
154 1 1 14.388925522752947 14.809009272156745 13.411136026493688
155 1 1 12.232237709466528 14.963007350302355 13.916600817819738
156 1 1 17.045196784859137 12.839988682056903 17.82174393212734
157 1 1 16.836291487395403 9.313189213833985 11.495689063707063
158 1 1 16.765082421125605 3.7310831409499534 6.41837357694594
159 1 1 22.4944004243234 3.438698895225527 8.54806196602673
160 1 1 0.9093996186083798 9.357350098424723 11.559771107672113
161 1 1 8.589845262692632 16.59632951812028 14.31967678647239
162 1 1 12.09495628035342 20.48391721499869 17.329534076830132
163 1 1 13.185204387135196 18.37468420272149 15.717865340298188
164 1 1 17.445615381087556 15.566430206502188 18.153172160511463
165 1 1 13.985739021311042 16.00634179866442 14.618319689137074
166 1 1 19.108324205596528 14.347670401427674 13.512227605023378
167 1 1 20.83782008113071 13.54180302406861 11.995723500832288
168 1 1 17.128614424161434 10.853209593934556 13.123883018942639
169 1 1 13.90217000828095 11.486044194659247 15.946706183502506
170 1 1 13.002407799630191 11.591466910494473 12.066964881348474
171 1 1 13.327570662600634 15.22716856021843 11.32117104151527
172 1 1 10.450866146431558 19.858091554267933 13.771095641153062
173 1 1 4.224081499647436 20.23525610230145 18.00886080256395
174 1 1 25.610135441639372 18.33751144219782 18.846601650322203
175 1 1 17.594080066747406 17.06024798587547 17.191837294206994
176 1 1 12.515795761872832 13.023626950939313 16.67483563338325
177 1 1 12.650524282777644 10.343231887996415 15.401944878863787
178 1 1 15.149569315763122 10.437793887703556 14.506831553069517
179 1 1 17.459448505719536 6.170610572996134 14.657386292663112
180 1 1 17.107046555895877 28.5202789411381 17.700305349807085
181 1 1 14.167447901219854 20.87099084722883 19.261963680240786
182 1 1 13.206505362860247 17.396598082788334 20.066408669427723
183 1 1 15.039680169458864 19.012222281541295 16.391494934294382
184 1 1 18.677563001415635 20.684974983919467 14.164124135628704
185 1 1 26.35729766601484 21.708870467643102 11.996457953904054
186 1 1 4.738884037124195 20.684992014307017 15.007488384175266
187 1 1 10.021495111673895 21.584676618375322 16.553213008846523
188 1 1 12.17109882425521 24.7701820029066 13.842150174029504
189 1 1 10.783561383715375 1.39101957471836 11.656649880133337
190 1 1 13.280913003292328 7.274550251326143 13.710483010406596
191 1 1 13.097914816732567 11.323722578092971 13.876051458006597
192 1 1 12.079262367892431 12.79682769007838 10.702485060631554
193 1 1 13.850694907208705 14.125851596862118 9.633369120360463
194 1 1 12.72693018922879 16.998633712255664 10.854315448823616
195 1 1 10.837019544498185 15.83999978687485 14.88324187619867
196 1 1 12.925974420501028 17.324942202015173 17.32558878318981
197 1 1 13.886253653439812 14.82801028142047 18.218647357078268
198 1 1 16.593910848585583 15.233425836270108 16.310722609865614
199 1 1 12.152895986040232 16.08585684939904 12.488485819085964
