ITEM: TIMESTEP
246
ITEM: NUMBER OF ATOMS
200
ITEM: BOX BOUNDS pp pp pp
0 30.0
0 30.0
0 30.0
ITEM: ATOMS id mol type x y z
0 0 0 21.0794092132284 11.855384900668865 12.10473328331063
1 0 0 21.68483037261286 11.5045333621872 10.45844048537094
2 0 0 20.30578628275034 10.815012795640921 9.534253641062035
3 0 0 20.16270003847272 9.867906510056697 8.013960841228181
4 0 0 19.333520893152905 9.545729525487396 6.4601845107052
5 0 0 20.371192583631395 9.848911789065117 5.043854460576466
6 0 0 20.573992439652788 8.736484590870903 3.6655986718902867
7 0 0 20.49094653207357 7.536779091682393 2.340468001114851
8 0 0 20.66762535817726 6.0382335623351455 1.371664649693218
9 0 0 22.436195002848528 5.819065384247872 1.6199944573221985
10 0 0 24.140324241751316 6.289242476603191 1.306639872037958
11 0 0 25.26597339597777 6.553186579909429 2.6789866586534417
12 0 0 26.200835358327193 6.893065060536908 4.171613619734026
13 0 0 26.267637652620675 8.193803573053371 5.415796082752702
14 0 0 24.93420140391447 9.184569964093466 6.098282799964729
15 0 0 23.990333051804864 10.459752445398097 5.24822197697336
16 0 0 22.52967666042671 11.286818546294901 4.620101576473683
17 0 0 21.53705580758649 12.277088524908644 3.527888097402277
18 0 0 19.87149735701976 11.86734975566033 3.9798123208308818
19 0 0 18.09083359882334 11.725476159765723 3.915793197643142
20 0 0 16.486574827975247 10.952041208792023 3.7051723479473417
21 0 0 16.008049129340463 9.293564112395924 4.15822960104147
22 0 0 15.062836598114268 8.003810470981213 4.961335101244246
23 0 0 13.519562925578668 7.1837112759141695 5.3408395875541546
24 0 0 13.043037483188874 5.49562997044102 5.681420080970317
25 0 0 12.26793251827094 4.504903981638852 6.956644970510287
26 0 0 13.19460683330851 3.8034390713902018 8.312358691141405
27 0 0 13.370562152930336 2.079660591317165 8.714231420175848
28 0 0 12.041572436702651 2.493430970111192 9.847297414652841
29 0 0 10.826894954627006 3.481821670756873 10.70875712557691
30 0 0 10.432264717126426 4.491989413627132 12.135791623592066
31 0 0 10.42247537252865 4.6163774060258636 13.929632657217114
32 0 0 10.475291932636948 4.972810845202784 15.694842225399583
33 0 0 10.637539098378157 3.568189269262077 16.790425983628726
34 0 0 11.977274250964529 2.4910491154739116 17.292853227863226
35 0 0 13.272502205266616 3.70972995932757 16.98763944127171
36 0 0 13.844409329458646 5.398759343197591 16.93698334078776
37 0 0 14.400871428568902 5.132945921976315 18.613905763588207
38 0 0 15.276715520838907 6.691769412936975 18.43714811252597
39 0 0 14.677166135035579 7.441760129859091 19.948677332725687
40 0 0 15.156255913167684 6.309045147441571 21.243852481542014
41 0 0 16.270291481050826 4.9148087839688435 21.020874345535983
42 0 0 17.744778791406777 4.852763562890966 22.0268269243713
43 0 0 19.22861824436823 5.704112612696207 22.530977784235734
44 0 0 20.66772883817242 6.6046317908908545 23.069860206505105
45 0 0 19.869907962026424 8.174219391762314 23.407016327645373
46 0 0 19.976646061015046 9.78665242639515 24.16955310364383
47 0 0 20.1453854106572 10.494011299442432 25.807233654164882
48 0 0 21.806264228539092 10.014329509297799 26.272125033475074
49 0 0 22.38041359514759 10.250274342831926 24.599346696744792
50 0 0 22.773965359952733 11.16166590916527 23.11647142157775
51 0 0 23.9884008612179 12.354846427288898 22.574228475218042
52 0 0 23.743407255072558 14.07622713859649 23.013277373009085
53 0 0 23.2760752458031 14.890274083916962 21.48687378287333
54 0 0 24.422788620903212 15.537537017574646 20.280830365890623
55 0 0 24.977709337829175 17.159949731832935 19.78998646113662
56 0 0 25.44066243545378 18.057327963809016 18.32094007208677
57 0 0 26.373982594246474 18.69967431308248 16.94368822960564
58 0 0 27.00537831849015 20.32924897456469 16.58771942522405
59 0 0 27.956196303984612 21.752954443698957 16.08119157345513
60 0 0 28.10447694562013 22.84736537159121 14.678849711369779
61 0 0 28.33512861298941 23.23896807666002 12.950040661555832
62 0 0 27.853219779240654 24.28009420215917 11.56746073054318
63 0 0 27.510269653038225 25.503839091078493 10.296488597098996
64 0 0 26.235968746616752 26.59881756713487 9.685245353833349
65 0 0 24.708350373891157 27.003569601143305 10.507609413212457
66 0 0 23.819462012334856 27.071317756223944 12.05717054628999
67 0 0 23.989586504869237 27.41639576365982 13.804405070556648
68 0 0 25.411041348443977 28.46452260196529 14.115686802170915
69 0 0 26.146868787584904 0.0805042503259624 13.857466546200277
70 0 0 25.668089896207576 1.6149825839564387 13.060566985263693
71 0 0 25.45228563819632 1.579610089577719 11.28655503201644
72 0 0 25.95679855214668 2.16988173354275 9.683855852880784
73 0 0 25.457435023538252 2.3666755704606404 7.985674195886588
74 0 0 24.908040901792745 3.874286076251399 7.192226089948418
75 0 0 24.310523340893678 5.528158030553878 6.853719727401689
76 0 0 23.912769695218408 6.525979696506539 5.426123433919341
77 0 0 23.642184554188358 8.082119491736968 4.5890938798993695
78 0 0 24.453533409218274 9.080921751937169 3.3456658334690292
79 0 0 25.782786842624397 9.821059342150942 2.4045166218089284
80 0 0 26.279127778252782 11.266592520308475 3.345275616665542
81 0 0 26.600430945675278 12.629097480592343 4.463558374181411
82 0 0 26.583221681349578 13.80206052710131 5.815363374600471
83 0 0 27.119455082277938 15.108472527616229 6.911907966790394
84 0 0 27.668893217515574 16.283051687507506 8.143971297091351
85 0 0 28.934340842697424 16.823199167031984 9.287064411771617
86 0 0 28.72056056491134 18.199855870755673 10.408891928744547
87 0 0 27.79374186383388 19.606775821683637 10.99837885479529
88 0 0 26.810272004947013 21.08809084083618 10.898117144409222
89 0 0 25.620599583844932 22.40647664486926 10.746891132613788
90 0 0 24.59457507651496 23.567826772345963 11.634668001495301
91 0 0 25.21253149635656 25.015693152349954 12.479833598765381
92 0 0 26.343592318477402 26.403116868490088 12.529722084986727
93 0 0 26.530071281310292 28.145516517601347 12.162528795112616
94 0 0 25.070601885136988 29.10094495289601 11.81331300456844
95 0 0 23.838912900524416 29.838503892068037 12.857221367246817
96 0 0 23.149095604944115 29.978870577941404 14.49479130731247
97 0 0 24.125549728297077 0.6847535693461754 15.81714360271076
98 0 0 25.873559659189755 0.9459110935140616 16.143978973383334
99 0 0 27.204565849701694 2.145368551182432 15.95272967125023
100 1 1 29.659715736478205 9.86256454618832 12.743388313217624
101 1 1 29.013877996506697 9.092223036405464 14.580515767270537
102 1 1 0.6054403282241609 8.625112495826611 15.774449261933315
103 1 1 2.387438660970803 7.58818729081156 15.775339752052282
104 1 1 3.548216838810738 6.194383268353433 16.759478684817086
105 1 1 5.174226540963245 5.003415805621343 17.06712233812321
106 1 1 5.585093085144128 4.213317229393604 15.197569280597051
107 1 1 6.544384631621271 2.974496646123324 13.806450452322682
108 1 1 7.460388524609043 4.735237972987665 13.222442227024429
109 1 1 7.835917813322411 3.390821596797288 11.6727450655247
110 1 1 8.135251791974893 4.451833295962053 9.927276848163176
111 1 1 7.70063929804806 6.425922716580932 10.59288785838941
112 1 1 9.167693728932978 6.809618928251069 9.222426342382297
113 1 1 10.011245973470986 8.275650622197489 10.400891000620605
114 1 1 10.322707114008647 7.551778804607953 12.32310470643625
115 1 1 10.588270270145697 9.635063942869577 12.396225649448391
116 1 1 8.905820755451515 10.790589433325295 12.139933112825094
117 1 1 7.134379635015559 11.121804138894058 13.115795561224664
118 1 1 7.618194854283344 13.047640032069477 12.596592801601728
119 1 1 7.539876752316149 14.936069134260244 13.399956100269423
120 1 1 8.321520714602407 16.790092812053462 13.050763061371866
121 1 1 8.848675236837304 16.100746076884043 11.192769922938309
122 1 1 10.272973557434877 15.338245048803183 12.518867224405632
123 1 1 11.03070747733245 15.40841289009105 14.441590619559223
124 1 1 12.47336097500278 14.89354390266958 15.8063677334135
125 1 1 13.932543326780186 15.098092210442525 17.270432704235496
126 1 1 14.413778921910806 14.701704394137506 19.2373368454788
127 1 1 13.690499757331668 12.77703788907842 19.54431011944285
128 1 1 12.395499064078663 11.388236755051098 20.391996454469535
129 1 1 10.473707308314319 12.17806455342846 20.440379049374716
130 1 1 9.069513431227087 12.122671216778848 18.96858376911413
131 1 1 7.479972015776535 12.076785747909959 17.657490351772445
132 1 1 5.793279780301889 11.412310578668533 16.639452830628056
133 1 1 3.807523399071936 11.012325913122156 16.235519839765043
134 1 1 4.360748560457917 9.95233425386255 14.585333357274687
135 1 1 4.386795498289235 10.29152108679877 12.532853892017032
136 1 1 5.606869108370057 9.266270698789564 11.18653028341958
137 1 1 4.641873091960299 10.19452177063257 9.599695401247407
138 1 1 3.551235889192711 10.892328666702685 7.970898491524429
139 1 1 2.6946314615813463 10.76664558581461 6.080058077829833
140 1 1 1.8001044439332454 10.544705518285058 4.225700659025844
141 1 1 1.7545095877502228 10.34443782721616 2.171489806259412
142 1 1 2.8655176924247208 9.380691184568597 0.7136696571697023
143 1 1 4.712320331535941 8.86586305698949 29.947317807031567
144 1 1 6.415878097118286 10.019582785030961 29.761497999388393
145 1 1 6.6819229974947065 11.811774540730186 28.72684126761085
146 1 1 6.329400919851958 13.279238181679201 27.279653495514385
147 1 1 7.871568504233735 13.145163997342127 25.90718365260398
148 1 1 7.38394490941538 13.685669499055528 23.99159542921627
149 1 1 7.841891971248142 13.709353742370606 21.98419983125579
150 1 1 9.31135917100552 14.599607135843517 20.850179569590175
151 1 1 10.435686878416593 14.305365017609475 19.148526775364523
152 1 1 11.754919142364034 13.374482090222903 17.865256607840173
153 1 1 13.430125364048221 12.601541299897335 16.93700959044265
154 1 1 15.247616685194988 11.894381761945938 16.278570351775432
155 1 1 17.08015978651592 11.614093120147466 15.408440435641644
156 1 1 19.014396087161444 11.650259708728749 14.795469751466609
157 1 1 20.890237471409687 11.098037303975529 14.226857007708695
158 1 1 22.77533647056266 10.342226063431095 14.52478756202684
159 1 1 24.827662684985388 10.432583028942588 14.448052509938574
160 1 1 26.83374092366176 10.816662008106379 14.750094969409185
161 1 1 28.17538019584125 11.997913352113034 13.73255100027257
162 1 1 29.61312246476641 13.009140344191106 12.677093832803353
163 1 1 1.2903823334650002 12.737991304988515 11.496639925188527
164 1 1 3.2515831305750797 13.190103701017154 11.008531301879751
165 1 1 5.090289637319983 12.702037493141816 10.255925077330282
166 1 1 6.64761788843842 11.843797259848639 9.237866252443498
167 1 1 8.616013127822079 11.191647974095305 9.235074964135174
168 1 1 10.67510083214099 11.532700087991023 9.272806185540936
169 1 1 12.168181041348296 10.489652501423247 10.2985221576771
170 1 1 12.984040578743492 8.611593273575561 10.747393964437858
171 1 1 13.060297156483898 6.562984633232549 10.402536010968976
172 1 1 13.200171747661168 4.778264922454416 11.4497449758527
173 1 1 14.109428508011737 2.978213668065694 10.90322686571175
174 1 1 15.469231364297015 1.431049065838256 10.990647944623651
175 1 1 15.986550328527267 0.3225474871755954 12.653020003476358
176 1 1 16.77105941208674 29.906315143044797 14.52490261342577
177 1 1 15.692391260672025 0.7986321423389674 16.07523834174834
178 1 1 14.884204655602998 1.4591155210985958 17.88310683519185
179 1 1 13.6156117421682 2.3233900823157305 19.297283866925124
180 1 1 12.991351754194193 4.143155623045859 20.10489799911214
181 1 1 11.101933825350429 4.847519669819774 19.609531957723945
182 1 1 9.032747094048508 4.718466956601676 19.476806449109635
183 1 1 9.012388994593804 5.772262316090303 17.677041567891905
184 1 1 7.5271550980782305 5.986763836187305 16.266268824855803
185 1 1 6.529884078976695 7.274406814092222 15.015715656651114
186 1 1 4.637032796184609 7.523607056621028 14.252501694988409
187 1 1 3.5066828489548985 5.958715998738497 13.551760805692261
188 1 1 3.1839139693843275 4.46379112506696 14.9397519478968
189 1 1 3.007638970658758 3.47474008205178 13.128343682767666
190 1 1 2.9029689951714284 1.7716668194789045 14.290037174740231
191 1 1 3.3968994243208788 1.7786975581029398 16.295363795399798
192 1 1 5.324624938889904 1.053155434085437 15.973567743220727
193 1 1 7.127527961723502 0.047202097950497526 16.214454478268415
194 1 1 8.681563858231145 0.8791293130761789 15.124779870423197
195 1 1 10.74096236146496 0.8451945819591222 14.845917333084312
196 1 1 12.593873447228844 1.6988925069607421 14.457638754281712
197 1 1 13.20957291228476 3.6821544020575283 14.31989946487154
198 1 1 15.07708626882847 3.862683940935305 13.460818130230694
199 1 1 15.437489735505775 5.437447271047622 14.753358075540678
