ITEM: TIMESTEP
247
ITEM: NUMBER OF ATOMS
200
ITEM: BOX BOUNDS pp pp pp
0 30.0
0 30.0
0 30.0
ITEM: ATOMS id mol type x y z
0 0 0 21.033685463045504 12.44950316125459 11.88833006916747
1 0 0 21.83830051385341 11.602987720777678 10.534311010844057
2 0 0 20.2686737475622 11.037027297986146 9.894345913749113
3 0 0 19.949979580204317 10.176961031412542 8.356414029233143
4 0 0 19.23726947669266 9.600744451483175 6.8241547820313295
5 0 0 20.363327064516277 9.844669353646598 5.458954566283775
6 0 0 20.429537361971928 8.945114672327263 3.9290775583693716
7 0 0 20.278924892099518 7.693695032749234 2.6780730235368964
8 0 0 20.56527053289219 6.241687091000757 1.6819193787328874
9 0 0 22.34927633886082 6.015406549093516 1.626480943248781
10 0 0 24.118669126503413 6.24041105020967 1.42863859766205
11 0 0 25.15846687471316 6.880114355683719 2.749408393989951
12 0 0 25.779060715787082 7.011247055976484 4.428278194612119
13 0 0 26.049090674352996 8.387842760333394 5.566309019743703
14 0 0 24.849617619387843 9.403239568439911 6.462666195999185
15 0 0 23.84504373449436 10.7078666528216 5.732613500088104
16 0 0 22.488271928323936 11.266243512038812 4.699736646435058
17 0 0 21.47632585005226 12.391715603148059 3.7399871554002875
18 0 0 19.80364938139208 11.852749285488173 4.090062733634546
19 0 0 18.025742085066373 11.63557207800404 4.086236313574369
20 0 0 16.40995750235739 10.908196271949858 3.8171531221373702
21 0 0 16.10383058938426 9.152403041722625 4.114706583129527
22 0 0 15.073490113253724 7.915042077480449 4.930843968969493
23 0 0 13.500526038179537 7.194635271294551 5.4138229376229035
24 0 0 13.154566348899358 5.467185123276977 5.7656603079902204
25 0 0 12.404513968870122 4.429979715478448 7.011166838845416
26 0 0 13.151444168880635 3.71159395754349 8.468405230675573
27 0 0 13.305499190714583 1.9554562856746123 8.812361237387531
28 0 0 12.182108474943115 2.2416931199890207 10.151089282020196
29 0 0 11.032204184155612 3.4608387030801944 10.736695495879903
30 0 0 10.666512313615588 4.423490128153833 12.193268446161769
31 0 0 10.472841309421208 4.4026477562771005 13.964241766376432
32 0 0 10.397063642834729 4.819518268273068 15.704512524179625
33 0 0 10.50530702673275 3.414006681042369 16.805074131267403
34 0 0 11.884743338674118 2.3049532368198227 16.982279404215458
35 0 0 12.935049560349741 3.733965428087642 16.738995323914825
36 0 0 13.77295488591831 5.329827405540685 16.765162170543835
37 0 0 14.750769188177195 5.255889231939582 18.26472722758153
38 0 0 15.547358438474156 6.842718630662059 18.208057823116576
39 0 0 14.960616670998387 7.3866669276570205 19.81235390432231
40 0 0 15.529863338311818 6.6370875532423526 21.338946308937103
41 0 0 16.289557535614417 5.021177529939862 21.157689256035432
42 0 0 17.915302817502624 4.781788160973424 21.85497277504756
43 0 0 19.22923117204771 5.70432627410264 22.629802078196903
44 0 0 20.683101937454563 6.585564074477436 23.178906651110495
45 0 0 20.05871780900255 8.259845926400311 23.328009448419724
46 0 0 20.045080593628132 9.797386806510866 24.246755510909864
47 0 0 20.224018267423464 10.538863210957752 25.86685721230101
48 0 0 21.849538132219944 10.045090373428977 26.407034934091286
49 0 0 22.423581272331475 10.292645726848503 24.734351537302583
50 0 0 22.910746677979965 11.169838320486065 23.257394373451504
51 0 0 23.998499350901998 12.354512308608932 22.485290364557112
52 0 0 23.75156705638224 14.029789899857905 23.04257372994228
53 0 0 23.424266680284173 14.893447119818523 21.511784084508033
54 0 0 24.411613274768293 15.722295359291882 20.266263657183508
55 0 0 24.865706740422347 17.382036568028006 19.751509287917802
56 0 0 25.406118113272573 18.04840400880623 18.174727415911107
57 0 0 26.3901347541046 18.870194511876214 16.91953842674782
58 0 0 27.367621126688597 20.328192766073176 16.574297987845263
59 0 0 28.025933482965375 21.947924085199567 16.191051508454507
60 0 0 28.290411902839114 22.870994086283126 14.673045361111093
61 0 0 28.396177836585075 23.339363516660043 12.942548025315775
62 0 0 27.924765417644092 24.52374876926216 11.681804629802908
63 0 0 27.440339698578146 25.619592427272423 10.350265175400267
64 0 0 26.069819754035624 26.682336287170248 9.90627205954909
65 0 0 24.5415295598605 27.029441172869532 10.765475762241175
66 0 0 23.71907970295247 27.103712481555885 12.347295772406742
67 0 0 24.02151077037077 27.46452546220779 14.066591061869097
68 0 0 25.44131029243289 28.496422465624082 14.437022200532473
69 0 0 26.136499499690668 0.09116589825549 14.001737498910089
70 0 0 25.784822527409204 1.6619237451169788 13.226734012474331
71 0 0 25.468277795393362 1.5566706290639798 11.480451059576836
72 0 0 26.02692201966314 2.2270057356624604 9.930009101067325
73 0 0 25.5359104462824 2.448879883870631 8.227294969994814
74 0 0 24.829422607419765 3.9504882138101163 7.570028060619966
75 0 0 24.2120413789759 5.5887954056014255 7.223712071251859
76 0 0 23.73508842775166 6.615819265284291 5.839891991840301
77 0 0 23.592569598743975 8.171550023447194 4.972916729621917
78 0 0 24.38602054555198 9.194747071849328 3.7437148993903566
79 0 0 25.68001683109995 9.771172544569685 2.6510182210938247
80 0 0 26.43266281782385 11.127218379762875 3.5455083324364596
81 0 0 26.782239098500884 12.582573314732603 4.52815328463036
82 0 0 26.632692455719102 13.775295146953612 5.856209767360949
83 0 0 27.167631416068666 15.088309508017261 6.939936563152254
84 0 0 27.548546811916992 16.30805524156447 8.180233721880922
85 0 0 28.811504717553053 16.937884134823513 9.267141425075415
86 0 0 28.68916608566646 18.20115217894051 10.522984140315637
87 0 0 27.72040495280333 19.560610456561218 11.171661368388035
88 0 0 26.830663470435777 21.105751013610988 11.023063387177897
89 0 0 25.70855676235162 22.49476938164754 10.999622044087856
90 0 0 24.577811126714685 23.579644264643726 11.864660792115783
91 0 0 25.087115593199687 25.040402543800404 12.777583673323882
92 0 0 26.202083141604668 26.44002517204749 12.63644090870443
93 0 0 26.458204038132504 28.198093496018107 12.403744575956203
94 0 0 25.050284248752288 29.196791771803074 11.944716031317345
95 0 0 23.813217337711418 29.895286028876686 13.011393509853999
96 0 0 23.19567577048103 0.16742158629011553 14.65793287284055
97 0 0 24.187492245572116 0.8771511096675517 15.972741716089491
98 0 0 25.96166175426055 1.1395613157252278 16.115803842183325
99 0 0 27.412935086607924 2.1949652986963017 16.057296157277978
100 1 1 29.94526477875 10.152934784313201 12.832773868221029
101 1 1 29.111435534527153 9.185404890925282 14.420752550489023
102 1 1 0.7494974643414049 8.700344586721563 15.640246380447062
103 1 1 2.5151858506791105 7.617452930633001 15.715624932848453
104 1 1 3.567392335118487 6.126868285706338 16.724079201926948
105 1 1 5.172908421129195 4.874144180192099 17.15642753921302
106 1 1 5.66581825700099 4.216283496755948 15.260073211542014
107 1 1 6.57167939385522 3.0157598362422653 13.88412284107316
108 1 1 7.540584682466975 4.727294441222391 13.100780860749046
109 1 1 7.844737322372678 3.276448184836306 11.663816767293591
110 1 1 8.077103194198376 4.577229005980965 10.087736002937628
111 1 1 7.7363391993866735 6.46392179749547 10.794454802342448
112 1 1 9.08419609076654 6.866330618447675 9.237190792299034
113 1 1 9.94948132441462 8.254899633024834 10.499713119967312
114 1 1 10.381859858375508 7.652068959909621 12.44332723220912
115 1 1 10.620598568954467 9.723840026544078 12.327904983876127
116 1 1 8.866297823615099 10.8194535925935 12.152454537089861
117 1 1 7.087453496859038 11.083369817847307 13.143986773674646
118 1 1 7.567215508202953 13.01577447622618 12.533937008840407
119 1 1 7.280203623627662 14.91165214424701 13.374506767249404
120 1 1 8.27867340660195 16.716796266823174 12.901033365716064
121 1 1 8.99650137611095 15.898924777824332 11.13609644156317
122 1 1 10.333276253624563 15.16065882348184 12.491629615309641
123 1 1 11.00267255330374 15.387296340528609 14.443802033736736
124 1 1 12.511423046062632 14.887723425002285 15.794130004139252
125 1 1 13.927728422932049 15.125462295682112 17.296623648936873
126 1 1 14.369305607128895 14.672974072215725 19.25297206926956
127 1 1 13.52155215467809 12.805446848860294 19.45569168172344
128 1 1 12.40025071744086 11.37484116884875 20.436292623662347
129 1 1 10.452413288108453 12.11069604388024 20.414119671752307
130 1 1 8.984095368505074 12.073982488234543 18.935011669448524
131 1 1 7.415585221975368 12.05753552169453 17.553709053391163
132 1 1 5.753236573986794 11.325052860813548 16.550834554094077
133 1 1 3.730241049488587 11.046690556226084 16.281506214463406
134 1 1 4.345550689076685 10.053614250088543 14.545601125644485
135 1 1 4.449017526472339 10.251313833226828 12.475968340732583
136 1 1 5.566820966590115 9.235367694258787 11.094121319014908
137 1 1 4.531642649564799 10.14361592493487 9.561004343757192
138 1 1 3.4965381392397012 10.902373064899477 7.933512211932622
139 1 1 2.6602176865993568 10.792006295511387 6.041579089630375
140 1 1 1.7653934438851897 10.544464603190736 4.203870800303457
141 1 1 1.775532366024993 10.298788062291017 2.1611581347685185
142 1 1 2.9433872139417945 9.278358809552758 0.790331737290454
143 1 1 4.804737257396674 8.827399870986437 0.04524062423501992
144 1 1 6.442456676292412 10.044269039101568 29.73605151088648
145 1 1 6.567214767400567 11.820034721542486 28.71853245136142
146 1 1 6.350764461795592 13.257213199888167 27.28504553975148
147 1 1 7.901723083040794 13.054721408324784 25.90777752592688
148 1 1 7.315516418040472 13.654178662492447 23.998150970573402
149 1 1 7.907206499507497 13.583106591755739 22.001594858350973
150 1 1 9.389417550790027 14.584390549469612 20.920499058460692
151 1 1 10.397104703842865 14.256622337171025 19.128776936455658
152 1 1 11.727723591103473 13.275860057448483 17.877465435283405
153 1 1 13.360098348420642 12.47513613776047 16.907584847882276
154 1 1 15.199893690465304 11.921854794505975 16.21047729352032
155 1 1 17.052487214004042 11.552264149247762 15.383234736802125
156 1 1 19.012527272834557 11.638496402329363 14.767259930265393
157 1 1 20.927568763348205 11.090248620074536 14.298468036147433
158 1 1 22.78816396380772 10.273924626444433 14.530910248113194
159 1 1 24.823428562953968 10.400085911787754 14.480457491894239
160 1 1 26.809621128364018 10.783929920498288 14.756094745684257
161 1 1 28.053506462646208 12.018268009122329 13.684539437040565
162 1 1 29.582640944191695 13.00705365904042 12.729643154844798
163 1 1 1.2442039477494418 12.76709354588291 11.54419695320155
164 1 1 3.2140696452196384 13.218930251984998 11.116328904451771
165 1 1 5.027355379202585 12.668849230785318 10.276785826902378
166 1 1 6.654778701815867 11.898099327287524 9.222002398818853
167 1 1 8.65051271443604 11.309600871229996 9.20101625280124
168 1 1 10.692843146113962 11.577063838566586 9.130482391736173
169 1 1 12.058271138534002 10.510604063685804 10.239667782538865
170 1 1 12.981619040105368 8.754461620625909 10.767295949349952
171 1 1 13.176999866415827 6.729212231083712 10.391993330325242
172 1 1 13.269346665388712 4.939721240668067 11.409027524070517
173 1 1 14.121404508943735 3.131262513615332 10.940321157860106
174 1 1 15.441873076601052 1.5463283989475225 10.88614865210051
175 1 1 15.851007881921706 0.3891011493822875 12.55679450762487
176 1 1 16.73950330534415 29.95138606692067 14.379958869963414
177 1 1 15.816994773466995 0.7924240786515206 16.0199769132504
178 1 1 14.937658082350948 1.4078792872903902 17.79808068034714
179 1 1 13.709299294950798 2.312080956522116 19.201947672321953
180 1 1 13.067731893030734 4.097521908620302 20.034942539126675
181 1 1 11.15322843763957 4.764527049796108 19.582065785744383
182 1 1 9.091277303569276 4.5293078830431135 19.42325284004783
183 1 1 8.99862106104752 5.837284829317977 17.826490057801642
184 1 1 7.473862995959626 5.872676039078691 16.41196387112659
185 1 1 6.67362642601211 7.2272430568744115 15.04746188766311
186 1 1 4.718449441594216 7.50451057927325 14.353134868749926
187 1 1 3.4607786501172964 6.080549434671154 13.506171490486654
188 1 1 3.218635280140617 4.470563641300477 14.786945657282672
189 1 1 3.070916835427292 3.469832996346841 12.970177469965897
190 1 1 2.9793441856249556 1.7566227358912974 14.1276405577223
191 1 1 3.37336670452503 1.9039673644354724 16.1656686671564
192 1 1 5.290706874729174 1.1755974454834466 15.852684511982087
193 1 1 7.02420297467237 0.08097384996828035 16.166660220148636
194 1 1 8.62204815236605 0.9594812514919253 15.17138771710251
195 1 1 10.680910446924097 0.7913797369662744 14.883664166869226
196 1 1 12.540825617293692 1.5816607766690316 14.4621552737889
197 1 1 13.208282259487138 3.535938174430887 14.377706560958488
198 1 1 15.068515836491185 3.6801611565387775 13.470747174733422
199 1 1 15.467477835341843 5.259478876243925 14.752536745803717
