ITEM: TIMESTEP
248
ITEM: NUMBER OF ATOMS
200
ITEM: BOX BOUNDS pp pp pp
0 30.0
0 30.0
0 30.0
ITEM: ATOMS id mol type x y z
0 0 0 21.037578681581202 13.010973910114119 11.582124289015841
1 0 0 21.913187542410807 11.738458958194457 10.670729788272233
2 0 0 20.263418785039317 11.239120503502251 10.221597782775275
3 0 0 19.71513097100975 10.492399362158144 8.695251186769328
4 0 0 19.17663250945501 9.671314620319407 7.2097994578699245
5 0 0 20.350019836632832 9.806753789082757 5.868275348899469
6 0 0 20.275184476444256 9.14795104810308 4.206674687888468
7 0 0 20.090916455983134 7.838565716175808 3.009943288804517
8 0 0 20.53960707901193 6.448680745403794 1.9954416863537259
9 0 0 22.27614305183494 6.244252454706358 1.6259082854771636
10 0 0 24.064159265705925 6.220129683481001 1.6438608829600294
11 0 0 25.02168171071961 7.15990853286519 2.856447627125603
12 0 0 25.37406276808045 7.2068223784258345 4.6206187137042125
13 0 0 25.746446347324202 8.560803637503287 5.733246540994569
14 0 0 24.839395716869486 9.703576157829692 6.762465859742483
15 0 0 23.64217337336346 10.89771625926745 6.177873835314342
16 0 0 22.5266410693769 11.26803680900666 4.826081328896134
17 0 0 21.412896277902192 12.418522987681055 4.01677440913896
18 0 0 19.719543171522275 11.883348413827328 4.169051271637235
19 0 0 17.982087288409947 11.521604200979075 4.245030096125658
20 0 0 16.374944859669974 10.81909395303908 3.9482917932587815
21 0 0 16.171272523774043 9.043400130745631 4.094268018382304
22 0 0 15.073908999269792 7.856747450970349 4.877469463207342
23 0 0 13.522605098808077 7.186939340732522 5.478961645967348
24 0 0 13.257175844773453 5.46184212247014 5.85880078014604
25 0 0 12.554724180956107 4.357949909387323 7.0639722127099205
26 0 0 13.117858090372406 3.6134086319488556 8.594750863659188
27 0 0 13.18449015595651 1.8648276877503616 8.962975284181018
28 0 0 11.95637768917552 1.8586260846728555 10.25920648385564
29 0 0 11.257075336492452 3.402270256011931 10.776336786468727
30 0 0 10.894037846348022 4.32720170946522 12.243668865875502
31 0 0 10.528613037368432 4.214904585557841 13.988772816687506
32 0 0 10.318197089474033 4.6531470654476585 15.714795305285499
33 0 0 10.364872031926504 3.2456905591122625 16.818438070015866
34 0 0 11.805603749859197 2.1872746162905807 16.669770407745194
35 0 0 12.592336376276302 3.792705468918985 16.7241551003757
36 0 0 13.72754170945981 5.203391631405573 16.660710289666305
37 0 0 15.064058451355127 5.387107181244599 17.825483623657977
38 0 0 15.805692643841757 7.01589404302421 18.01848373989079
39 0 0 15.285519636532761 7.277163719911606 19.710153575215607
40 0 0 15.909917221938226 6.918055803095557 21.34951602575071
41 0 0 16.350724446606723 5.1958996425722 21.339841654789776
42 0 0 18.058914863249736 4.769028413717644 21.6845399596714
43 0 0 19.214445890370925 5.68375277342189 22.6981123397191
44 0 0 20.641889628037234 6.5864390152683026 23.280099598829953
45 0 0 20.265485688538735 8.335039885391565 23.267640156554698
46 0 0 20.085499354234276 9.775076129783532 24.32257650906179
47 0 0 20.281903160387706 10.578867758651729 25.91390502420329
48 0 0 21.89441026597374 10.072227604953728 26.526222559257047
49 0 0 22.50743251468449 10.348929278561732 24.87152331169818
50 0 0 23.06444211401797 11.186480617193716 23.39702626448122
51 0 0 23.992055729975917 12.342876561938521 22.403235219815
52 0 0 23.752603744450067 13.991500421064384 23.05231113990087
53 0 0 23.614936917010304 14.904040667840667 21.518128549578663
54 0 0 24.38092993056055 15.952979987981015 20.276846868264634
55 0 0 24.767385390842094 17.580426332531935 19.616965226968826
56 0 0 25.435549965987477 18.063239033347593 18.022220114319463
57 0 0 26.42211422817307 19.140772242100223 16.978994687855224
58 0 0 27.689910890648864 20.331871889651904 16.550995304889966
59 0 0 28.047217050999905 22.050012700039 16.214883406493637
60 0 0 28.45880872071517 22.837543632996045 14.66557607891227
61 0 0 28.419866314471317 23.488026904326897 13.000179139868884
62 0 0 28.003722791072818 24.735997293205426 11.791856135649688
63 0 0 27.348196642709823 25.721611933670584 10.46004969946927
64 0 0 25.91888952392643 26.738362948256263 10.151504682199132
65 0 0 24.39299250687209 27.041859129408806 11.020682346117862
66 0 0 23.62707081912248 27.127213600291384 12.632849191835264
67 0 0 24.070894542971406 27.522542384575672 14.320062594090203
68 0 0 25.423921684031015 28.571299638214292 14.82631549711009
69 0 0 26.110815765424437 0.06415680517239425 14.127132795816774
70 0 0 25.9066138072135 1.6909806434947008 13.410713077339722
71 0 0 25.492156986590267 1.5733349975359567 11.673804305961601
72 0 0 26.09430209776212 2.2839891736287203 10.156604635491163
73 0 0 25.61594014251024 2.5299902433901744 8.460363721195428
74 0 0 24.759089619233198 4.01980866106161 7.961493136005305
75 0 0 24.108415073040543 5.647669114639324 7.57966287691731
76 0 0 23.546738089544178 6.7249861736517325 6.25724492392147
77 0 0 23.462397815244792 8.221271524539587 5.269955967172193
78 0 0 24.321210505403155 9.300424569591616 4.125932033665706
79 0 0 25.571213693277716 9.738182222363033 2.9208402981634696
80 0 0 26.570308480967096 10.982303890404603 3.7425835404067156
81 0 0 26.954519729944614 12.520102759256462 4.591667186118818
82 0 0 26.698313329532365 13.749480002937332 5.875566773691083
83 0 0 27.200129520784465 15.061903030633744 6.97864291155614
84 0 0 27.437765869971276 16.33161336672688 8.212393237602205
85 0 0 28.685774912035694 17.070749295056306 9.258765446950143
86 0 0 28.646223801630747 18.205591752330218 10.63622339103022
87 0 0 27.652616035006197 19.522076607418914 11.326383944123274
88 0 0 26.837107411111447 21.11224226434747 11.147196585977417
89 0 0 25.807733352631637 22.580427089103274 11.274011891735428
90 0 0 24.58022408177542 23.60123691677915 12.092677818977032
91 0 0 24.97640234217056 25.062206993775234 13.055735913200891
92 0 0 26.037995488610864 26.478850711822723 12.74437368366386
93 0 0 26.414350661456925 28.220142822982027 12.533398602138522
94 0 0 25.03231131920272 29.256080348373054 12.081252910699812
95 0 0 23.797893232568722 29.943582918947545 13.17081291730446
96 0 0 23.251553841930683 0.3620116851870612 14.814993770911983
97 0 0 24.26199628762616 1.0570380174002745 16.114562132738218
98 0 0 26.031630285893986 1.3773760718737522 16.144350619325856
99 0 0 27.61239289451517 2.2319287300322244 16.16250007000028
100 1 1 0.24157180542763637 10.455299703334255 12.906309943951097
101 1 1 29.242634621497913 9.249650811959423 14.314208564902676
102 1 1 0.9061833939830564 8.750981853339729 15.473566552352363
103 1 1 2.6153564531595426 7.628277415676623 15.690923366726825
104 1 1 3.59519032459986 6.08241559623942 16.662454259115368
105 1 1 5.119391023480913 4.794811465368501 17.271202466740682
106 1 1 5.755785937396894 4.243485102243359 15.338806016196415
107 1 1 6.671256865952678 3.079350778003916 13.874541362551687
108 1 1 7.579146991505812 4.6702267331587155 13.028715759469115
109 1 1 7.852797820501074 3.1252942427846153 11.661100261717067
110 1 1 8.03564411207919 4.666277182452468 10.206737892987627
111 1 1 7.804649776215912 6.574650637334364 10.96772134448199
112 1 1 8.941625978188576 6.8900776808941036 9.282622381073754
113 1 1 9.88049410749292 8.193863733827946 10.58220620792198
114 1 1 10.446719418065168 7.795071734392115 12.532780162454154
115 1 1 10.66267723058487 9.820832708620124 12.325280054817533
116 1 1 8.854900823946444 10.849253408482236 12.151481272063352
117 1 1 7.0321049797472925 11.113440764562341 13.165413476611178
118 1 1 7.485016005488098 13.028413222478852 12.539931824046628
119 1 1 7.098956436986357 14.884493767852296 13.271205572122085
120 1 1 8.184588796681124 16.527363720083706 12.755638013056872
121 1 1 9.108189145169819 15.723222256596632 11.07595733510596
122 1 1 10.423564772704994 14.970245916598698 12.505602492355724
123 1 1 11.009594184820216 15.352199877721203 14.468100173395454
124 1 1 12.53295747399321 14.901753481789044 15.773432211705996
125 1 1 13.897878636537936 15.148383062387326 17.28896957067143
126 1 1 14.338359317115586 14.66032260586752 19.276415358812194
127 1 1 13.401484098164405 12.807449460706556 19.415153111656863
128 1 1 12.357825144129494 11.3708398234499 20.48178792272044
129 1 1 10.412501022506014 12.00429081921149 20.335911909358547
130 1 1 8.8927963840081 12.027987525654108 18.906906206298753
131 1 1 7.388603904463849 12.02057951754072 17.491826228923824
132 1 1 5.750178879512804 11.254912751578965 16.48353272172422
133 1 1 3.6684255785935758 11.048998703011108 16.27838880221589
134 1 1 4.312919734280411 10.202803399285564 14.515104739403984
135 1 1 4.500135604080763 10.214134538314935 12.474602731065414
136 1 1 5.543634079990916 9.19174423669189 10.996018061656208
137 1 1 4.41695194856137 10.093510910885376 9.518250032778552
138 1 1 3.447434514640086 10.916093607110538 7.905279975581194
139 1 1 2.634694812068044 10.81934481958957 6.0263895960308105
140 1 1 1.716707872375605 10.54650631629848 4.1917895534578316
141 1 1 1.7761398748327457 10.263853687752388 2.132153267598036
142 1 1 3.0010090993752367 9.171856598158978 0.8582287117592632
143 1 1 4.8958477015684085 8.748534807002015 0.13313451254770156
144 1 1 6.504334914855262 10.02159234777438 29.748125562612934
145 1 1 6.4661012304042735 11.847639218138365 28.7205960398274
146 1 1 6.381362451616273 13.290354409542358 27.218545875558295
147 1 1 7.894052634205265 12.98786375969683 25.861043308901845
148 1 1 7.293640165352428 13.598967575893665 23.983298373963567
149 1 1 8.008410616652894 13.504342324465096 22.058974006957847
150 1 1 9.436726629097418 14.516323098496853 20.97647215959785
151 1 1 10.332676357901219 14.234758236565174 19.146721074191177
152 1 1 11.602132317047023 13.2159810289314 17.868215072774674
153 1 1 13.242115841117847 12.360098109092178 16.891233506375706
154 1 1 15.142952942267152 11.9389615306237 16.14996994401451
155 1 1 17.00931825131599 11.472309432250743 15.352358190848172
156 1 1 18.983898634833285 11.666523685517376 14.73826392888771
157 1 1 20.94543025969249 11.107532013993023 14.32034237970875
158 1 1 22.772479118543394 10.131140789253914 14.558928415530664
159 1 1 24.85314558637131 10.350215443389203 14.489962867404214
160 1 1 26.87410361022959 10.720995040786505 14.832677967159002
161 1 1 27.93022519539374 12.055013455303815 13.626535120142574
162 1 1 29.563514230311917 13.052880062759762 12.776289058293179
163 1 1 1.2311304495719124 12.7871274512866 11.5630404479266
164 1 1 3.228997585192316 13.240719988050358 11.201815045053229
165 1 1 4.9843018850560386 12.618692545066905 10.275416950798116
166 1 1 6.652732457898107 11.965572271981724 9.2430145229432
167 1 1 8.638571225236358 11.440803727395107 9.166850711021205
168 1 1 10.682369723574354 11.648389520795002 8.960165451319831
169 1 1 11.95173500426376 10.550262718013794 10.193689245292964
170 1 1 13.002392297080377 8.887260789610782 10.810449413033728
171 1 1 13.295864610673615 6.894184214324852 10.354213086455527
172 1 1 13.316161337149822 5.110922643467732 11.401961806419424
173 1 1 14.179382857766159 3.2811032295063156 10.985408750017687
174 1 1 15.439891778101126 1.625214224645272 10.789561936280997
175 1 1 15.721177443617725 0.4594434899310156 12.468887810515644
176 1 1 16.695099563480944 0.004965958015129811 14.229048083098744
177 1 1 15.938306442081954 0.7851631959503672 15.977376837201986
178 1 1 14.980853411627537 1.3625309495656397 17.709964872748433
179 1 1 13.815047327641626 2.3121901263915783 19.09831716385216
180 1 1 13.113983750429096 4.0417698987928725 19.949213627187035
181 1 1 11.19880065753499 4.666225746740441 19.56286434824635
182 1 1 9.182119576070818 4.366778134876675 19.35205983862608
183 1 1 8.94987012633875 5.8782886076877245 17.959029493108407
184 1 1 7.43146429639481 5.813763314279854 16.538952446985654
185 1 1 6.767207272887433 7.138154665894552 15.105679968981867
186 1 1 4.841922935014598 7.421986184918036 14.45461711900398
187 1 1 3.448774712880892 6.230838227693356 13.49766291049439
188 1 1 3.2221078591769317 4.485036959621929 14.606224720676522
189 1 1 3.133531708325669 3.4647941090183725 12.829906760160139
190 1 1 3.061583689802367 1.7530294240627486 13.986654239265166
191 1 1 3.3612508513473935 2.0216470843479715 16.007634805993593
192 1 1 5.260571395755854 1.2914855262907052 15.739883851153387
193 1 1 6.934103102577128 0.1447554792145892 16.092120231974338
194 1 1 8.578086734636157 1.0154668224825767 15.23572705358626
195 1 1 10.589779097996232 0.7503532232344227 14.923132673839689
196 1 1 12.472761607534464 1.4592946809399567 14.469365533369816
197 1 1 13.213685692519295 3.3874389793906716 14.409202088203134
198 1 1 15.058470645072717 3.5036084259966547 13.486021889322247
199 1 1 15.494738117967955 5.077001444611613 14.747461926108228
