ITEM: TIMESTEP
253
ITEM: NUMBER OF ATOMS
200
ITEM: BOX BOUNDS pp pp pp
0 30.0
0 30.0
0 30.0
ITEM: ATOMS id mol type x y z
0 0 0 21.861078619531217 14.620864040079008 10.097805224488097
1 0 0 21.103825122462254 13.698579051125117 11.442581368007943
2 0 0 20.300775446144815 12.10859577392521 11.237577963891473
3 0 0 18.792236306876486 11.691229206942776 10.361050310237514
4 0 0 19.362531075758987 10.472109039881307 9.191699917106051
5 0 0 19.748692935969917 9.537305343606864 7.736886275599459
6 0 0 19.54087750517223 9.725761002812378 5.978721690203335
7 0 0 19.61321292325331 8.527408269366463 4.651702029441871
8 0 0 20.93205315628528 7.953002570264755 3.5778097203629633
9 0 0 21.90198808285162 7.4047194358076664 2.1726810689854235
10 0 0 23.313956190796315 6.672306201028374 2.9946815538790275
11 0 0 24.207158779052733 7.637609738216161 4.214271185733753
12 0 0 25.249493077378904 7.98647806207952 5.638601929827325
13 0 0 24.888820890467656 8.847639963413847 7.159063416223448
14 0 0 24.637617319854733 10.590041056601 7.397447032343906
15 0 0 23.073258675827912 11.292025882119578 7.861681772877943
16 0 0 22.57231664096649 12.123128873334496 6.354574353478008
17 0 0 21.021889410938854 12.17145822296197 5.477115551387344
18 0 0 19.376316128979784 12.064525921246997 4.8114392463778355
19 0 0 17.872233215456635 11.096822640520585 4.732189841682046
20 0 0 16.2964737524592 10.243442348951254 4.66663466655456
21 0 0 16.439101986215714 8.581691210008636 4.049463930547376
22 0 0 15.000604515906023 7.7056365631055375 4.6366150446709735
23 0 0 13.776645419901678 6.972639057469862 5.72239534805891
24 0 0 13.605122433935582 5.382650633685016 6.512326575945813
25 0 0 13.47292465466681 3.9820576813791413 7.607127142505669
26 0 0 12.901548900312754 2.7597340459203945 8.77474508080758
27 0 0 12.423790178103799 1.1005611404774431 9.248986952202038
28 0 0 11.199141610483197 1.3019542876692616 10.53103835135696
29 0 0 12.08557610976073 2.393509972981114 11.630500951711989
30 0 0 11.929494843387594 3.7188248451784562 12.786806471712794
31 0 0 10.810800166142402 3.6694507600774555 14.16846870720205
32 0 0 9.483743470385598 3.644115199650515 15.364192661260883
33 0 0 9.697618807813022 2.7065951738641467 16.879125929059356
34 0 0 11.356387465074702 3.2360837209409157 17.242293687351527
35 0 0 12.754873345205164 4.373109415389362 17.191090929225506
36 0 0 14.469849469096673 4.89467559481912 17.14963207392502
37 0 0 14.656689350778251 6.6195618228629405 16.70630311001403
38 0 0 16.19607032054125 6.58774352526501 17.604827522942383
39 0 0 17.363260958676186 6.787095595737077 18.96064123348747
40 0 0 17.547753010298955 7.51808513791017 20.576696078461037
41 0 0 17.294312888985495 6.543405953635073 22.070418865249543
42 0 0 18.302505246812974 5.298840291711116 21.291245443406183
43 0 0 19.322878058987484 5.589488008459355 22.735647276903734
44 0 0 20.006525556107363 7.018285043744638 23.54855466962187
45 0 0 21.159274589244685 8.37241892315915 23.386632122563263
46 0 0 20.5218208699596 9.38220015260849 24.71553925955977
47 0 0 20.463902996044844 10.616197041837157 26.019102141330727
48 0 0 22.050599395154915 10.236700823886352 26.75146872313532
49 0 0 23.128946255553743 10.827218070406008 25.451333273063486
50 0 0 23.913867830666057 11.507729453286053 23.99974067469068
51 0 0 23.752153231791045 12.409966951572807 22.469527902133237
52 0 0 24.00257491865591 14.084469247327148 21.891718803816456
53 0 0 24.697924789984803 15.66073889792313 21.39878819461093
54 0 0 24.290522169926987 17.105853236867215 20.42948408229876
55 0 0 24.67247516382627 17.50477435265439 18.730463294519353
56 0 0 25.608376677994546 18.82209665958604 17.96452548725584
57 0 0 26.829953032143145 20.06854197838821 17.59147856162826
58 0 0 28.32089837004411 20.417669071755878 16.67389773652964
59 0 0 28.32952881890747 22.03037463996087 15.905068167453807
60 0 0 28.93225887841425 22.8473837954342 14.435490841892015
61 0 0 28.56512624422488 24.40362994577258 13.619688189061575
62 0 0 28.14140237220442 25.492655880632594 12.255881085598626
63 0 0 26.73937646665549 26.28847268721123 11.47503031641563
64 0 0 25.004038471266586 26.688191982417248 11.305685846814677
65 0 0 23.51376531849346 27.018379105978337 12.239885835654407
66 0 0 23.286762028733133 27.442068630536767 13.960191535502949
67 0 0 24.367827792209187 28.0363085144761 15.255697876861385
68 0 0 25.213285275933544 29.043687418888304 16.47056232217149
69 0 0 26.0006424222563 0.03664685829356488 15.210340614627215
70 0 0 26.504885796399087 1.485101225527862 14.299417577130827
71 0 0 25.875356159568486 2.0837439659310815 12.744128992463914
72 0 0 26.21662826274223 2.5787142681967183 11.067710240346859
73 0 0 25.59021876032732 3.6125014083935825 9.758325461684922
74 0 0 24.39469000842425 4.93102537652884 9.598828993957637
75 0 0 23.46535082166928 6.056505635993519 8.557407414467255
76 0 0 22.92858595248003 7.715963233001685 8.14678086001157
77 0 0 22.395929806177787 8.707800540114869 6.759347920840791
78 0 0 23.182565230181588 9.410554773190727 5.326807241152838
79 0 0 24.598951422597374 10.485162746875227 5.303593734835414
80 0 0 26.309396830909062 10.494188439154605 4.80846008815235
81 0 0 27.28973905925727 11.951513800607351 5.161982660635435
82 0 0 27.48287357549208 13.542223011602324 5.965693205563508
83 0 0 27.095401222604753 14.886063089122102 7.07875461026837
84 0 0 27.3842126586976 16.233806057780555 8.212256637057331
85 0 0 27.651122456536694 17.58227051669084 9.33585339205713
86 0 0 28.215787472945234 18.17810470536494 10.908145233417526
87 0 0 27.420750874706297 19.514917855209077 11.785886763721834
88 0 0 26.76577874605867 21.157564703498544 12.072400853877339
89 0 0 26.234138896437745 22.749530369205434 12.693629090114435
90 0 0 24.866109239992394 23.768312295231265 13.218992198635624
91 0 0 24.643331938241914 25.202582661327778 14.252292505238898
92 0 0 25.751868996010007 26.542801286945597 13.868527623143047
93 0 0 26.12109005436061 28.078359009206906 13.050875385565723
94 0 0 24.749047933075733 29.20907138087265 12.92397292917839
95 0 0 23.71658358542703 0.1540771750332758 14.046623431535087
96 0 0 23.704417313216837 1.3173951930016163 15.414821715212685
97 0 0 24.878964147700298 1.9694191574739823 16.597748386251226
98 0 0 26.459609103392534 2.801033207397621 16.653941716580626
99 0 0 28.1695616026446 2.2869408310105808 16.656717837453506
100 1 1 1.6359249871283246 11.278193716505772 13.749393214643506
101 1 1 0.19265452067317465 9.797063644935614 13.570635870592996
102 1 1 1.751124496881193 8.93468960893919 14.598903404257843
103 1 1 2.8468470995221757 7.708268578850142 15.880316427838387
104 1 1 3.808150250171011 5.8970313580375135 16.354748058814334
105 1 1 4.7858103685892415 4.44870673043853 17.42491146997178
106 1 1 5.944706341170283 4.079256742728251 15.748997183780212
107 1 1 6.869288083014623 3.116856622466429 14.162761950815726
108 1 1 7.990278694304911 4.464226398234389 13.149014860010702
109 1 1 7.886375540889251 3.1511472691774984 11.507567736294366
110 1 1 7.814475310079235 4.852834133445642 10.373371509870276
111 1 1 7.718322090428119 6.524587178360631 11.697505533052707
112 1 1 8.356109470779447 7.262730008579552 9.813215730787983
113 1 1 9.953267672699111 8.055128877824112 10.879332272586357
114 1 1 10.703687822845026 8.479301396435947 12.806517569547143
115 1 1 10.729012798700596 10.45627505479884 12.297506538726777
116 1 1 8.746911172220823 10.959555796623034 12.303348238240948
117 1 1 6.894508503669816 11.064544165075718 13.201356284020187
118 1 1 7.139065598718704 13.011628982954454 12.463519509389464
119 1 1 6.153054192007919 14.872908340519444 12.807069831960302
120 1 1 7.879360807071019 15.584176165886301 11.866578415595253
121 1 1 9.632953602594135 14.860313163632773 11.037694114297883
122 1 1 10.782867735851648 14.136649167495932 12.615826246017063
123 1 1 10.991394042666128 15.116091623461028 14.40028356702484
124 1 1 12.62697709734193 14.992856385121094 15.661579919349546
125 1 1 13.792243030975795 15.21617328007731 17.37848413223168
126 1 1 14.155835135992932 14.568456600315793 19.31749816702169
127 1 1 13.214193410459139 12.768562250958034 19.613095544084025
128 1 1 12.147859739132555 11.364709504974485 20.6899378153474
129 1 1 10.215832632842048 11.409843291259058 19.93840735877867
130 1 1 8.509104341322955 11.791925806249024 18.82018880841111
131 1 1 7.262534907239633 11.843080705660322 17.181882524876162
132 1 1 5.634864835146695 10.933786729456173 16.297130379267838
133 1 1 3.580386356479196 11.061960345968325 16.153924092735654
134 1 1 3.9956758377410537 10.862487995473574 14.126902796518895
135 1 1 4.796400348065601 9.965115113942883 12.466544368478768
136 1 1 5.328338087519734 9.065701565654537 10.673187660314262
137 1 1 3.9110473585913006 9.84727574570446 9.335916123689843
138 1 1 3.183586667532152 10.993373954425914 7.758494049133888
139 1 1 2.401257951716281 10.920668105043426 5.84611317834895
140 1 1 1.548826432443151 10.563269078061497 3.979129786434664
141 1 1 1.9183458697201317 9.958065410564021 2.02439323300763
142 1 1 3.4044638586741405 8.732580519898692 1.2712560011167993
143 1 1 5.371125850735456 8.629427751049521 0.6077500480123645
144 1 1 6.4984739048385824 10.098068304514353 29.66210657587489
145 1 1 5.98090722473832 11.8332963413445 28.6439331058401
146 1 1 6.5437464626127815 13.19720965175594 27.170590096254152
147 1 1 7.870302635926059 12.63406045216662 25.699665357500955
148 1 1 7.175451632126996 13.314089469155208 23.875728364612318
149 1 1 8.524765377963178 13.163792819788123 22.328133725325664
150 1 1 9.748923533200497 14.108443906873392 20.97500393084285
151 1 1 10.325747069040585 13.836043166801552 19.01790901560888
152 1 1 11.121216817671378 12.851262712576407 17.377943074746263
153 1 1 13.010534154867218 12.120281678272647 16.82572513930402
154 1 1 14.8203710192535 11.792443552883599 15.810054071033525
155 1 1 16.845117601952506 11.750401260531168 15.32740992127149
156 1 1 18.751809043975854 11.182672816187447 14.765450601914223
157 1 1 20.800957149820402 10.934864155233047 14.84237328535965
158 1 1 22.688928705252128 10.178939393114975 14.4888838796448
159 1 1 24.737430561544933 10.117544907347837 14.747635082309042
160 1 1 26.720793699472114 10.693332059286153 14.656285590414203
161 1 1 27.58775857661214 12.140029090654481 13.482071204070428
162 1 1 29.30643606211019 13.091813463667469 12.83230205609813
163 1 1 1.1117847829525578 13.293411471476869 11.837113438180921
164 1 1 3.151488482081959 13.109338993812253 11.517676857466974
165 1 1 4.680770106700854 12.452621728488005 10.299626105522716
166 1 1 6.5989740281494 12.306002247605818 9.503323371244537
167 1 1 8.616193902198168 12.18199141299506 8.944261506622016
168 1 1 10.587717884759313 11.820540325347 8.36740412408719
169 1 1 11.480372750853293 10.65200158943531 9.828771237882286
170 1 1 12.938209371911052 9.582076745536328 10.807264776894726
171 1 1 13.826763794487265 7.777917197924996 10.380217668735236
172 1 1 13.679910550833627 5.895455722126089 11.193590565768515
173 1 1 14.576343331747822 4.0416164758494455 11.214751658273006
174 1 1 15.217236682221861 2.2240062684927606 10.427218090673225
175 1 1 15.13877975912646 0.7928221091552766 11.93513609025801
176 1 1 16.427220632553087 0.32332160302013174 13.523624156065248
177 1 1 16.549152193466895 0.6418614823163986 15.590609733179932
178 1 1 15.295030080593095 1.1237104998433631 17.20107746200721
179 1 1 14.314394856856094 2.2565483965824304 18.635515518269134
180 1 1 13.448226204372794 3.848562536835711 19.62818234381211
181 1 1 11.401375202877784 4.213388469664983 19.435062627195844
182 1 1 9.433976796186592 3.834064988293733 18.83298682312228
183 1 1 8.80177991167447 5.817914545306315 18.867902560478107
184 1 1 7.442467582404719 5.8001586279902515 17.318946332811535
185 1 1 7.25664365250167 6.661330410331001 15.445568279888954
186 1 1 5.36892767884441 6.867136884921248 14.669575309045443
187 1 1 3.6583137451554952 6.804329849802101 13.536711286822863
188 1 1 3.2729139098686497 4.771200386280345 13.649592908650918
189 1 1 3.4480286061311354 3.422392152779893 12.09390225325796
190 1 1 3.4776029663076913 1.7837797193876874 13.323669579422901
191 1 1 3.1792257189100703 2.661104736997207 15.160822841177765
192 1 1 5.081376384406589 1.8179400857433936 15.195301834132502
193 1 1 6.485996072888601 0.39302679963312337 15.773076866519663
194 1 1 8.341043109201975 1.2256552501939801 15.4574185382532
195 1 1 10.252798293857813 0.6026800298787542 15.072208515406803
196 1 1 12.155393859123471 0.8119016641472309 14.346072015479857
197 1 1 13.205911618515636 2.570835278978813 14.49356309582121
198 1 1 15.020267786760234 2.5889591063925588 13.51050657183446
199 1 1 15.668927551950768 4.171150177105303 14.667359427049156
