ITEM: TIMESTEP
263
ITEM: NUMBER OF ATOMS
200
ITEM: BOX BOUNDS pp pp pp
0 30.0
0 30.0
0 30.0
ITEM: ATOMS id mol type x y z
0 0 0 21.608692127675297 15.210387438473592 10.349911864466488
1 0 0 19.87518304788509 15.587348939912706 10.32082395530809
2 0 0 18.860136196856033 15.07442776159885 11.701270470381134
3 0 0 20.22565932361543 13.935323192875966 11.740680024886826
4 0 0 19.117908639053574 12.707888785363497 12.376673182941335
5 0 0 19.23607451863289 11.339658517959444 11.250224403695473
6 0 0 19.23175941826843 9.783788713566963 10.382793641414269
7 0 0 19.331616770780155 9.712561441714254 8.588134026885866
8 0 0 20.131807430922297 10.25332549894191 7.069242162963777
9 0 0 21.31597260117182 9.728756508281046 5.818745808971869
10 0 0 22.547903463723898 8.830795002544773 6.74849085006667
11 0 0 23.560490801675734 7.607518772015105 7.569056951921133
12 0 0 24.146458463748477 8.8782166258685 8.700080174595177
13 0 0 24.22496369381051 10.355895088212472 9.712300550680096
14 0 0 23.613524697047186 11.171844703851448 11.196169676272602
15 0 0 22.745428094083632 12.419000294082641 10.23940897227242
16 0 0 21.062216383650313 12.08937665483385 9.739972759252002
17 0 0 19.62012921294549 12.18603196410943 8.662949310861151
18 0 0 18.38554813316804 12.051377544951732 7.344023358769599
19 0 0 18.12530696332356 10.590130501603097 6.34425177141431
20 0 0 17.306146776173854 9.522647881027547 5.178437874278624
21 0 0 15.977222069243213 8.370244331773337 5.522214108485454
22 0 0 15.270393798976619 6.738057565305005 5.682422642599325
23 0 0 15.212017184636515 5.293237562576233 6.71666734447221
24 0 0 14.714269644854367 4.362371113448184 8.160970257872457
25 0 0 13.544400982531084 3.008566686181298 8.267712808462143
26 0 0 12.75351536772565 1.408487420527149 8.004842917486453
27 0 0 11.62614557751554 2.123629697936309 9.184870909945984
28 0 0 12.477682390199474 1.3472163209401768 10.5441501813599
29 0 0 10.98353911274951 1.9264657854116396 11.34668558772714
30 0 0 11.525588601957798 3.2100125318786557 12.450234893605838
31 0 0 11.256703372572234 2.6551578259000275 14.109215631889834
32 0 0 11.211421546917208 2.6106207182628762 15.89042612974837
33 0 0 12.499530174850912 3.7603896469721416 16.373591569767438
34 0 0 13.886204521974081 4.679169133664275 17.05197934341105
35 0 0 14.647257589198231 5.991535450474101 16.092649256078232
36 0 0 15.77116803996212 6.193701330732764 17.474947548660325
37 0 0 17.053953466074823 6.5373331564783586 18.677417361975486
38 0 0 17.178972943641035 8.122602142535579 17.862210337873016
39 0 0 18.902938344500562 7.693011964962305 18.084232733989765
40 0 0 20.604779404031568 7.325205026471874 18.52307259844091
41 0 0 19.73376102903133 7.134458089073047 20.07435527049703
42 0 0 18.459400079437458 7.592763297578649 21.219547628029858
43 0 0 19.268833344642488 7.119547667907897 22.760397186501326
44 0 0 20.400131087509173 8.181199650733827 23.66580162604893
45 0 0 21.762437726969615 7.376122117347028 24.500878869134425
46 0 0 22.141076334466373 8.766279818327007 25.549179010276333
47 0 0 21.8219673041733 10.324933016786142 26.3674970586304
48 0 0 23.037800824381055 11.440388653511024 25.683559319000995
49 0 0 23.89935566438297 12.67555359593522 24.719900766948758
50 0 0 24.04445025054286 14.32772719299803 24.040872695806772
51 0 0 25.290320156263682 15.171398885023919 23.0828058534388
52 0 0 25.07152235689959 14.426954269668004 21.475229727398503
53 0 0 24.324044125709328 15.359332144598497 20.14710232899254
54 0 0 25.42165233443729 16.681095530440537 19.63713313606129
55 0 0 25.738414004031625 18.303334870851387 18.948783384957476
56 0 0 26.51145831057711 19.897836625199627 19.155119156413882
57 0 0 27.41210843940256 20.530718081636383 17.753316952278382
58 0 0 27.722651597813115 21.75775232649517 16.49742043978034
59 0 0 29.09266051649439 21.939762043202958 15.369598849954869
60 0 0 28.68131594413672 23.654694329840584 15.07324040830708
61 0 0 28.461697380178634 25.02409687590394 13.945616510525351
62 0 0 27.146987512758635 26.23475474447783 13.880713044694353
63 0 0 25.44670835038361 25.884107109224793 13.42100020019971
64 0 0 23.670858925675113 25.965760815955015 13.679469413403739
65 0 0 22.817809973148915 26.759266554657113 15.042381610680863
66 0 0 23.024308103472162 27.87405172741992 16.42344320388334
67 0 0 23.74435896556183 28.791938395378924 17.776862448674468
68 0 0 25.134122948801075 29.9030455439584 17.969865339268452
69 0 0 26.314135424956437 0.8058040280572196 16.96549551880504
70 0 0 26.48981234283055 1.5871559603130596 15.36184287973758
71 0 0 26.441338560358275 2.762091174459047 14.0118579900819
72 0 0 25.900673691636026 4.4267209427485215 14.332274506855558
73 0 0 24.715071374370957 5.19679582227033 13.26134573263928
74 0 0 23.986136816055968 6.402893683357563 12.169082094837439
75 0 0 22.95090069337811 7.741040973034921 11.570620160509606
76 0 0 21.666953967244936 8.462115427135656 10.542321597078672
77 0 0 21.678412949250188 9.826249789339444 9.383199790784557
78 0 0 22.19124335682049 10.966422139889184 8.111787163243035
79 0 0 22.708172042158104 11.440543247397729 6.47682788825606
80 0 0 24.134584379622385 12.350402327330197 7.049905826780821
81 0 0 25.819283432932576 12.01830257673715 7.550498795108809
82 0 0 27.211045208989358 13.129995577680893 7.389652546887222
83 0 0 27.9316195261598 14.693709184386298 7.875457390863879
84 0 0 26.96621755811176 15.864250938943675 8.826301401677632
85 0 0 26.99748519243894 17.462748574342527 9.635766543612961
86 0 0 25.87511852952904 18.614189354935796 10.41586695196032
87 0 0 26.194138860308804 19.63049596634289 11.84310535349177
88 0 0 26.584102272785948 20.776698629772838 13.156314079494582
89 0 0 26.516694262099083 21.876218528010256 14.570477698860705
90 0 0 26.298076083146373 23.264007929899666 15.69616668337158
91 0 0 25.547612232786747 24.892270450380174 15.789050372010632
92 0 0 25.351127241638718 26.6536776808574 16.042346260921544
93 0 0 25.373565563624908 28.428183327158997 15.839539508364227
94 0 0 24.514878090391115 29.945940782804914 15.435551470594522
95 0 0 24.000348192097082 1.6488930225968008 15.603656471779832
96 0 0 24.8411938972788 3.0463998191725503 16.334944989459377
97 0 0 26.233889440375037 4.100007028513577 16.707171808573115
98 0 0 27.54205087453324 4.583397486635221 17.818251593025337
99 0 0 28.193276083881848 2.912043574996027 17.696304420609895
100 1 1 0.8247052015074829 11.845330127876165 14.633716058450554
101 1 1 2.0362017047310506 10.859795943323855 13.243383310055957
102 1 1 2.919251582436127 9.147524367479706 13.849700418922898
103 1 1 2.7050246955346378 7.91588725944929 15.495213446640795
104 1 1 3.4840649697103387 6.1546133163202805 16.33013928088172
105 1 1 4.14189723257399 4.2911844648908986 16.93595025330235
106 1 1 5.947059546172912 3.584165287346165 16.3185330395844
107 1 1 7.4066711630814055 3.6092117191763378 14.852646267981253
108 1 1 8.723048650666207 4.422717599105417 13.48180166689368
109 1 1 7.869992777604899 3.81446262322727 11.646512583550145
110 1 1 7.289913190367619 4.991847517609428 10.062371884138887
111 1 1 7.433941000462407 6.4879171526092 11.441876978049237
112 1 1 7.9709490850106635 8.257294987191283 12.362843032732043
113 1 1 9.822346387200808 8.000920911159273 11.53794918923595
114 1 1 10.98311021144721 9.037574196769762 12.845910800470351
115 1 1 11.324810490615764 10.861542041287908 12.024083733651354
116 1 1 9.271504608738157 11.282020468868756 12.031386761812577
117 1 1 7.706443526175752 11.662033208873957 13.357769592908875
118 1 1 6.1147230365236185 12.892320588844942 12.86395522723561
119 1 1 6.496621814478961 14.152823149792743 11.296784666372048
120 1 1 8.253647001109137 14.999114293827047 10.637422118601007
121 1 1 9.454103177790863 13.674475818451414 11.648084722539648
122 1 1 11.242784326187053 13.93015191031217 12.575129871190915
123 1 1 11.08582567697378 14.798068967884815 14.452103536121209
124 1 1 12.75402741559622 15.36171797261687 15.602432044587955
125 1 1 13.478487584930077 15.158730110477286 17.519755782249966
126 1 1 13.755539849868535 14.24914124190901 19.32194572957269
127 1 1 12.665115110988227 12.726473187830559 20.233706672030703
128 1 1 11.48247246487386 11.06892826195413 20.567532479794572
129 1 1 10.062504686271467 10.275348181341858 19.294715729174317
130 1 1 8.254266420362358 11.104415150139907 18.67929453176879
131 1 1 7.221160032463197 11.458464762903503 16.917778105614488
132 1 1 5.521447736102087 10.448644841491557 16.27693151272747
133 1 1 3.63152570963509 10.933618108892233 15.556290187054577
134 1 1 5.040147538016901 10.781993522740313 14.050663007370826
135 1 1 4.972384237625504 9.531986875542398 12.41043336240835
136 1 1 4.46891096304655 9.116629837918092 10.419960664717857
137 1 1 3.135493443301665 9.56805140845593 8.893355446137376
138 1 1 2.556856441989575 10.875368224351885 7.3844161972345175
139 1 1 1.8278350960540097 10.944031937560704 5.430621922628461
140 1 1 1.5978997294035322 10.5569492820136 3.4264545649379095
141 1 1 2.4607371064415173 9.148389771079788 2.190591453899461
142 1 1 4.327471428653305 8.267731132943076 2.079716689255645
143 1 1 6.149827250264485 8.879728554163664 1.3093116834174792
144 1 1 5.869636240132815 10.132590756656635 29.703821470274594
145 1 1 5.482967951927329 11.640937762504471 28.37628163169694
146 1 1 6.822809815581814 12.687038035420919 27.179258636003023
147 1 1 7.631523661634799 12.062372495693953 25.37642399498397
148 1 1 7.497798977130071 12.578784520938116 23.399084037031695
149 1 1 9.450008180256589 12.989319801739503 22.870712993461122
150 1 1 9.73845735377101 13.21951468573316 20.81086821491871
151 1 1 10.373569588996814 12.889938021951565 18.847499036322922
152 1 1 10.623899546053487 12.225120271357026 16.888792771844567
153 1 1 12.474512196960868 11.888786250691409 16.000164956431767
154 1 1 14.51419196148906 11.836206613815834 15.619032588323533
155 1 1 16.468572305019915 11.477167470769473 15.00984731653361
156 1 1 18.400038009112137 10.813313968795855 15.479857695445306
157 1 1 20.358876794944706 10.135472750118222 15.124354172596222
158 1 1 22.41962199970047 10.511612333795387 15.168671518209589
159 1 1 24.441401898425053 10.078076007055193 14.83468410724469
160 1 1 26.01226961218515 11.065342656980793 13.88413010736585
161 1 1 27.69909744284603 12.169440422178115 13.331459050522016
162 1 1 29.323905633382008 13.124898136288637 12.443061818592723
163 1 1 1.2478096283380444 13.925811519315268 12.546267970759551
164 1 1 2.4764766752968694 12.747977032229567 11.320913418658995
165 1 1 4.502218680703942 12.597710248213385 10.768088262469009
166 1 1 6.12209021918474 12.193944682665665 9.524095466091065
167 1 1 7.741423039041767 12.932148266003779 8.507254196048798
168 1 1 9.518027218987271 12.005381354532458 8.057264062531122
169 1 1 11.104118297318939 10.959741492220942 8.887240113550202
170 1 1 12.81972395309357 10.359432073676436 9.879749257670891
171 1 1 14.186446953408225 9.16947598552151 10.885797003281054
172 1 1 15.060679390527053 7.310479736737743 10.682815493434957
173 1 1 14.932448847081707 5.245120857155104 10.838238708091902
174 1 1 14.88107921846405 3.229773446012243 11.349216582415858
175 1 1 15.412931847085622 1.3981863541587884 10.5323247343114
176 1 1 15.847956868980216 0.009233047335634 12.012225341523566
177 1 1 16.52131263198047 0.31850651101170463 13.966808258384154
178 1 1 16.29330465022733 1.03690091124382 15.917139425046734
179 1 1 15.293897576448698 2.211055138563971 17.31862626524432
180 1 1 13.758967070929797 2.67073981426018 18.626259295494332
181 1 1 11.975246924563624 3.2788929658376085 19.475408975834192
182 1 1 10.200522238203824 4.24261867148225 19.13029286151745
183 1 1 8.526709622696988 4.929730077923516 20.12570017575399
184 1 1 8.108426726518116 6.116271084306421 18.46299021656749
185 1 1 7.426757178978236 5.783344377483134 16.523427806460187
186 1 1 6.8425269821979295 5.894971069617081 14.527094265193405
187 1 1 5.133634726742725 6.1687105239065625 13.389674276750654
188 1 1 4.028020643462608 6.027046532406161 11.64309261975866
189 1 1 3.949344715878165 4.016290995789096 11.07913602383604
190 1 1 3.5478620772868794 2.0487790731911475 11.661326628707135
191 1 1 3.5841995577315697 3.1413871401195026 13.405136636440712
192 1 1 3.6223835769172297 1.8714932551767178 15.012052710729774
193 1 1 5.537735822306672 1.131811024373796 15.214657093267958
194 1 1 7.501721596099143 0.5097214844348907 15.41287325404352
195 1 1 9.4525565366051 0.048432086093181476 14.859631277080894
196 1 1 11.462887652257338 29.68150735715585 14.547745261175768
197 1 1 13.124885695272573 0.9019708273310887 14.70951689093488
198 1 1 13.799450452065788 2.84820776939188 14.705602636233353
199 1 1 15.855213029557136 3.1125149698076178 14.673404667461737
