ITEM: TIMESTEP
270
ITEM: NUMBER OF ATOMS
200
ITEM: BOX BOUNDS pp pp pp
0 30.0
0 30.0
0 30.0
ITEM: ATOMS id mol type x y z
0 0 0 21.040227682350256 16.738555428852674 9.74353693657194
1 0 0 19.2587911757375 16.721668273589643 9.730929832102285
2 0 0 19.10838472359482 15.601570391726353 11.123264555976856
3 0 0 19.306153853800463 14.888636185261522 12.751416306390222
4 0 0 19.023700871874695 13.762822457781157 14.102549404496092
5 0 0 19.350103800634148 12.029798002025379 13.8871026860733
6 0 0 18.73029512631658 11.356750203794782 12.355624600614892
7 0 0 18.256866391338207 9.924379343770338 11.379059394186346
8 0 0 18.693271277294237 8.884272928641959 9.979347753883857
9 0 0 20.243969738173824 9.476370659522312 9.303733817734011
10 0 0 21.89347320949991 8.835889271780843 8.948142563986204
11 0 0 23.462900593272234 9.312956078468915 9.677723670693736
12 0 0 24.26542538410239 9.756728721095858 11.206721391178782
13 0 0 23.741490635783546 11.137462952050496 12.190109599348348
14 0 0 22.919382373266764 12.691301954258511 11.866069608761794
15 0 0 21.23398981847879 12.34829014803211 12.401921920645448
16 0 0 20.37063715179934 12.953581451468343 10.942488025816795
17 0 0 18.87791342083927 12.940159220760442 9.937772977910475
18 0 0 17.60043805753066 11.707323645805829 9.678375013838268
19 0 0 16.661305705634692 10.831573730880269 8.422310594816716
20 0 0 16.80582563805399 10.080735745944871 6.801062721935527
21 0 0 16.95161154895823 8.331825513899927 7.078315032686934
22 0 0 16.799951808079154 6.563347144411131 7.017901336354899
23 0 0 15.990114827464012 5.139419760180936 7.730065691512415
24 0 0 15.58801590208523 3.460168889482198 8.18182849080836
25 0 0 14.461350128449993 2.1678947999787863 7.66010928624066
26 0 0 12.715743692558998 1.9454587924662239 8.026133393684724
27 0 0 11.357021172443302 1.8574774562630516 9.204815176013062
28 0 0 10.505998980550254 1.9204416427059952 10.793936224560177
29 0 0 10.853595095787314 1.8020845738396554 12.551208683092803
30 0 0 10.20090374141079 2.133640869789457 14.193171517978866
31 0 0 10.27097653354157 3.505163529821249 15.366866758753599
32 0 0 10.345756012120166 4.830016339591222 16.57319812078603
33 0 0 11.608621845848392 5.51407575259965 17.627533828092133
34 0 0 13.321150523350223 6.056063018035441 17.458712630200388
35 0 0 14.923276127381907 6.072186461077594 18.283549572051314
36 0 0 16.630087965476424 6.4050183162273155 17.809248632576985
37 0 0 18.118212031196244 7.415083800900329 17.750617562659095
38 0 0 18.867266786503034 8.82022519621917 18.60175017086034
39 0 0 20.460027559012765 9.336723025473518 17.989721640115228
40 0 0 20.94198844005614 7.64970110131126 18.334617573154958
41 0 0 21.010706587726123 6.677019477838039 19.83320202806622
42 0 0 21.102095306537255 8.025385082065183 20.999868830951964
43 0 0 20.819290304044756 9.120818267512682 22.378681682681222
44 0 0 20.35190298731525 7.994840555283228 23.685582884804205
45 0 0 21.230031218128865 9.17725052451841 24.692334246623183
46 0 0 22.762541492475822 9.379851320608292 25.591164178037932
47 0 0 24.097950026955626 10.391321718533193 24.943171901817973
48 0 0 23.676211625107914 12.123489400413439 25.002057385989083
49 0 0 23.43775907756839 13.854045365042976 24.643017482748697
50 0 0 24.610260792021737 15.082516006989367 24.099219403910162
51 0 0 25.712070229057215 16.0416935199167 23.080039742743423
52 0 0 25.203167116863863 16.09099039080762 21.36648522228702
53 0 0 25.58903890198727 15.37746267577843 19.76661461457613
54 0 0 25.615061048682726 17.000018715042646 19.01442424669237
55 0 0 26.6990481643585 18.04512739794918 19.982688577581435
56 0 0 27.275639693477306 19.620717009376754 19.349431059887657
57 0 0 27.778443664022017 20.96854004543962 18.280054487485064
58 0 0 29.157182827582584 21.460477123090374 17.25840252237771
59 0 0 29.356588248120055 22.4264215141205 15.77204981497397
60 0 0 28.746859346377438 24.03447898998203 15.28856288823974
61 0 0 27.7158871753757 25.247230059565073 14.468839803715076
62 0 0 26.11766417955976 25.995484145322045 14.141236236244055
63 0 0 24.452850919153896 25.994328444964548 14.82853997909008
64 0 0 23.210700280778912 26.004205393245552 16.127162939171804
65 0 0 22.68229157761456 26.998921965151396 17.510446184291023
66 0 0 22.777500145817356 28.311851890252804 18.71885784083071
67 0 0 24.061496927755694 29.55723924116207 18.569676489272418
68 0 0 25.567695927281953 0.514779425011197 18.758644394316136
69 0 0 27.038078906851126 1.1512893525543346 17.962518006595346
70 0 0 26.97503432002711 2.3091650935817807 16.603716499094435
71 0 0 26.325724057912716 3.4111709890053676 15.3538459038512
72 0 0 25.89580329000336 4.95237566547488 14.541874616000674
73 0 0 24.459476120829855 5.935778122613297 15.00109108749727
74 0 0 23.289804790646503 7.300906043273003 14.889348715827897
75 0 0 22.781015260010385 8.52492247639784 13.68089737634435
76 0 0 21.916629015283796 8.60376874080944 12.118347476531085
77 0 0 21.839134485851204 10.219796245319507 11.362769887045804
78 0 0 22.124106307474584 11.51485278230975 10.16936639643141
79 0 0 22.376490342541473 12.827970005262102 8.975738091440602
80 0 0 23.503360721055596 14.028293596103712 8.244440808372238
81 0 0 24.55131909886854 12.943835065320155 9.191700187626775
82 0 0 26.2033929281685 13.636663783767796 9.114220846902315
83 0 0 27.672911247618522 14.667731669031776 9.243185077375387
84 0 0 27.211749105535233 16.199652742720048 10.053239749226112
85 0 0 26.461137824004698 17.81587456123559 9.908503038679568
86 0 0 25.288640721571735 18.837751809977124 10.78181895587291
87 0 0 25.176491864900512 19.908736369039833 12.201004899283376
88 0 0 25.201798391325323 21.07739807344796 13.548309116752968
89 0 0 25.440072219937406 22.548728872340256 14.52835351951105
90 0 0 26.01583985971324 24.003000566028188 15.386450748464854
91 0 0 25.89209142831028 25.23914224261002 16.666897347855322
92 0 0 25.906736144239186 26.989442716931812 17.027680587219525
93 0 0 24.955941510266157 28.351095742729555 16.36811099220701
94 0 0 24.251281908521996 29.9863619820157 16.19588286245057
95 0 0 24.237593744949525 1.6111668305133355 16.936397116414966
96 0 0 24.870378920870134 2.905389695584182 17.990873406701585
97 0 0 25.969183262792612 4.21418172745683 18.500842198766765
98 0 0 27.501912616658217 5.058900366073275 18.143764523786334
99 0 0 28.449857992745194 3.642115874317128 18.662072754244306
100 1 1 0.11868240037935994 11.534495369386276 14.600728942277252
101 1 1 0.754562540973204 10.55954572433979 12.93483276911684
102 1 1 2.21527907933791 9.83445858593909 14.137110472332209
103 1 1 2.9545627518828455 8.017985299431816 14.782843128636818
104 1 1 3.13745067110272 6.427994718454898 16.078815320304518
105 1 1 4.127617108432715 4.6283646834092655 16.225979476219962
106 1 1 5.984522002829915 3.6918537514713337 16.376552735894265
107 1 1 7.846347504223258 3.1590294431699575 15.627484064220727
108 1 1 8.392531621113756 3.9977774296500574 13.837170257566447
109 1 1 8.141948365658504 4.053239412826168 11.776024561008043
110 1 1 7.249079561391828 5.4941731404377725 10.57383134058255
111 1 1 7.411502935606638 7.475709223124307 11.103097227622476
112 1 1 7.852695368916229 7.513357716364223 13.114676307084164
113 1 1 9.608991859001732 8.113839812909324 12.278633747886794
114 1 1 11.345827682368038 8.911953240814544 13.081994684307405
115 1 1 11.543605979624402 10.544822042601488 11.904796740889916
116 1 1 9.524148726978643 10.64130506757105 12.259815986387482
117 1 1 8.436720460620627 12.245542927768208 12.981834173295976
118 1 1 6.802582863711297 13.454770179718768 12.621773380474682
119 1 1 7.352509878698266 14.186089971745124 10.795561438588349
120 1 1 8.666017993220946 15.783707719190378 10.96683603964478
121 1 1 9.890129415177663 14.404321280852196 11.865151240416948
122 1 1 11.580308394910933 15.266278583379242 12.581888148914047
123 1 1 11.271611723561774 14.863212606724293 14.564866067961638
124 1 1 12.80059952471457 15.603994170160954 15.749322066309794
125 1 1 13.225138638642639 14.956878163682951 17.659485983457376
126 1 1 13.217407145349805 13.78157201020319 19.364788874929104
127 1 1 12.090294400709576 12.507722513875175 20.562272380128505
128 1 1 11.764070608592798 10.503976882643911 20.036115333250475
129 1 1 10.077101418812202 9.64845690238196 19.114299447370502
130 1 1 8.281617426966507 10.515423235999952 18.525846389145105
131 1 1 7.131027299548778 11.059438031404673 16.928110014604666
132 1 1 5.428144916434688 10.185523733268 17.76512926645018
133 1 1 5.13973488592048 10.552473553384576 15.735458849166434
134 1 1 5.481186744398874 9.939433867845413 13.785764749078847
135 1 1 5.436141489324996 9.600038517017706 11.749342030535757
136 1 1 3.856391304916694 9.29384364099678 10.469875450137307
137 1 1 2.8374536398757626 9.552008631962991 8.676709042023102
138 1 1 1.9989370819375327 10.582066701022486 7.052247218040988
139 1 1 1.5318380981287762 10.854888016300952 5.050283674407582
140 1 1 1.7983466565628508 10.368196436381274 3.0456150570916
141 1 1 2.949657557034913 8.698814628355626 2.5930940283850905
142 1 1 4.969528323207266 8.206545628608955 2.5095742942046013
143 1 1 6.428627974097948 9.245479811194944 1.4953119811386042
144 1 1 5.317154095135503 10.150825107174212 29.975982386088393
145 1 1 5.412412864570009 11.330612323767912 28.260476350683042
146 1 1 6.948199505040631 12.10851071864392 27.110192266708623
147 1 1 7.36791868268037 11.8573577656192 25.085255972973556
148 1 1 8.124540534831512 12.024341829017262 23.15088752233917
149 1 1 9.864643253842347 13.029406839836458 22.645540723811436
150 1 1 9.250719944128734 13.037050315743627 20.666430809137378
151 1 1 10.095420702237778 12.18910597099694 18.95114350977406
152 1 1 10.74360583196489 11.963504823545744 16.9692560824001
153 1 1 12.297741309243012 11.915825466109801 15.597021867129637
154 1 1 14.297026814752977 11.68973132627293 15.235955479892045
155 1 1 16.224587248278127 11.019166317967626 15.430951473424113
156 1 1 18.24661448624756 10.621927123820132 15.46091950419238
157 1 1 20.255354019008685 10.187526784607721 15.432792346873052
158 1 1 22.29578741306897 10.11358117092058 15.552291350805946
159 1 1 23.93846380559506 10.854198810517355 14.561687892633563
160 1 1 25.67693410412203 11.504926931868688 13.657871162116523
161 1 1 27.6106585783957 11.910256582480395 13.032589423185799
162 1 1 29.343691660061538 12.983863991643247 12.615465503685437
163 1 1 1.317997392639737 13.64954956728805 12.619728712509774
164 1 1 2.607993434513867 12.880724678936778 11.188459618082668
165 1 1 4.4726784186038415 12.368507490409657 10.447691732046357
166 1 1 5.154405499504331 11.479642009630718 8.717448715425066
167 1 1 7.120350218666211 11.801339178640337 8.24181912828654
168 1 1 9.129851479495887 11.714522901260445 8.728283187991627
169 1 1 11.16845950955648 11.407046749457475 8.538490804351273
170 1 1 12.747599339892925 10.089289399003087 8.54086701822115
171 1 1 13.76550078556859 9.28688037527832 10.160586640217193
172 1 1 15.440511671903694 8.151623196627419 10.70894710757351
173 1 1 14.881789548145461 6.167047463691715 10.441846308001862
174 1 1 15.36435325249317 4.543082883071317 11.637858876797914
175 1 1 15.62647950385031 2.634030066956782 10.947621549705989
176 1 1 15.656813763376734 0.5977482187256868 11.186195124074137
177 1 1 15.744426602854032 0.4667127321128941 13.247176844685804
178 1 1 16.50624885670885 0.4959580678606885 15.159941574249686
179 1 1 15.622856116626089 1.3929190318429345 16.783779231415608
180 1 1 13.783298215265201 1.9823590134617166 17.484004942344754
181 1 1 12.37935875401292 3.0479431155999293 18.565206686632262
182 1 1 11.262931183599315 3.980825406556411 20.053158289486063
183 1 1 9.231357100655666 4.2884517967210565 19.81138902090024
184 1 1 8.491511131405467 5.6566982616495 18.491917315405118
185 1 1 7.366727627446142 5.896033896661625 16.787050770303225
186 1 1 6.479508227876045 6.147297024845474 14.934026515463867
187 1 1 6.547673945379366 5.4337839455985915 12.983549384437994
188 1 1 5.121712623563185 6.375649585268186 11.840123055724884
189 1 1 4.174104679674303 4.891583016341737 10.719181849575833
190 1 1 3.6863254318724397 2.8417149359599887 10.632852184701374
191 1 1 4.090983005928424 2.6800350259571 12.663794546160343
192 1 1 3.313136024442649 1.92267890638849 14.403744012231684
193 1 1 5.286754241944624 1.3183030796067017 14.58342649796314
194 1 1 6.730992107712736 29.873441307307317 14.77749414028567
195 1 1 8.780468592278472 29.745356613014582 14.891450505316515
196 1 1 10.839909609409158 29.876643048389496 15.065190009552982
197 1 1 12.78594321420652 0.10151966478028596 14.384788076504655
198 1 1 13.84723926992702 1.8380305620598694 14.731982466771678
199 1 1 15.015262628855323 3.2334186108289464 13.76184373533323
