ITEM: TIMESTEP
271
ITEM: NUMBER OF ATOMS
200
ITEM: BOX BOUNDS pp pp pp
0 30.0
0 30.0
0 30.0
ITEM: ATOMS id mol type x y z
0 0 0 20.933307787329017 16.96113394239323 9.65416904768125
1 0 0 19.152214939497732 16.785105450166363 9.776016705640293
2 0 0 19.29171069990372 15.657429169223168 11.151535562288164
3 0 0 18.999265243060766 15.137680560511726 12.843383825308635
4 0 0 19.078438570629306 13.99046723839157 14.215745375883657
5 0 0 19.407763864744066 12.230875056940036 14.062440015002203
6 0 0 18.56255497761549 11.444017565854615 12.683790718921621
7 0 0 18.291273363570085 9.935000448595607 11.744586685426535
8 0 0 18.433685087959 8.817928851613214 10.34231731128524
9 0 0 20.13580390750831 9.227332336064421 9.90285760080215
10 0 0 21.843418829757177 8.900915350678359 9.435374991634196
11 0 0 23.547631808103525 9.332777161539594 9.752816382951798
12 0 0 24.13044532737414 9.819855263067092 11.382249342935118
13 0 0 23.417531525975132 11.37817330736781 11.862743500319365
14 0 0 22.765088226853205 12.998441192507082 12.204577422530386
15 0 0 21.098770794713054 12.53138381583915 12.60752020506481
16 0 0 20.249304604202518 13.049280146441724 11.108840629049626
17 0 0 18.76747411938927 13.041047366484493 10.05072147768677
18 0 0 17.619653872187016 11.646879790420563 9.993652496328822
19 0 0 16.52594765065541 11.00539674506663 8.727080620878324
20 0 0 16.71944194493322 10.073958960157784 7.203138272284447
21 0 0 17.08314436472461 8.316877604898828 7.190725859525005
22 0 0 16.944562900068647 6.535080265321535 7.311198302123332
23 0 0 16.159730883004375 5.0295282231787795 7.8829377107596095
24 0 0 15.585953624615648 3.3413739587250006 8.022529759116484
25 0 0 14.289424502641623 2.123525161481319 7.757404213573769
26 0 0 12.61106316545077 2.144019999329115 8.369532530608081
27 0 0 11.511046858319759 1.6114045641464103 9.669865407434553
28 0 0 10.529103799252763 2.348906649533631 10.969537047530974
29 0 0 10.818498410786825 1.807839651363249 12.65860732596398
30 0 0 10.053424820411415 2.3496043051860727 14.191973950353418
31 0 0 10.268848603422752 3.630909818837344 15.42274239476265
32 0 0 10.385937161884812 5.080212845736073 16.481596416650238
33 0 0 11.660476815613428 5.763065222607232 17.553126180769247
34 0 0 13.446960411009167 5.78370400877353 17.651084720614534
35 0 0 14.85685133559633 6.4983432313201375 18.509600385480873
36 0 0 16.51145700866499 6.430054742281274 17.769009704078055
37 0 0 17.874101327177694 7.5886716174985605 17.822537934292992
38 0 0 18.810800227267656 8.949658914901915 18.511364876851214
39 0 0 20.521508080700002 9.258323165449577 18.103822738846045
40 0 0 21.326647854609636 7.6651429338832235 18.28741457192086
41 0 0 21.184071579495658 6.75154814505111 19.819787255409747
42 0 0 21.484958956925006 7.980649283099866 21.07160263710088
43 0 0 21.276475942677056 9.164261855423897 22.395046400388217
44 0 0 20.35456348744757 8.260373753297069 23.63253225001932
45 0 0 21.15737379200136 9.449203197814366 24.700379205607256
46 0 0 22.789236524773614 9.72389430901804 25.389612226566275
47 0 0 24.214060365578547 10.442198041881683 24.60264600310541
48 0 0 23.885770398328418 12.172271904917425 24.935763435738423
49 0 0 23.437435085871403 13.895257180950562 24.72877048703182
50 0 0 24.645861615387883 15.017858057726098 24.057197681809747
51 0 0 25.641258465573287 16.107599985238696 23.053178578287373
52 0 0 25.280690298161424 16.333036633385383 21.309012435662723
53 0 0 25.794274871384445 15.48346048481587 19.81821714370797
54 0 0 25.674726425752773 17.086485059868323 19.03481547299615
55 0 0 26.827887897718934 18.01931004865798 20.041529889471057
56 0 0 27.360870536501967 19.539283545750646 19.25588803538162
57 0 0 27.938526027046112 21.014860191691348 18.418114254020008
58 0 0 29.280315590519965 21.399044457210998 17.299814550839283
59 0 0 29.30211143829979 22.58889424612665 15.968930130642507
60 0 0 28.679916248367046 24.077349420119116 15.207580645865194
61 0 0 27.565295400363752 25.33642470462952 14.592821913216376
62 0 0 25.902099290463106 25.88164538960175 14.182411645068445
63 0 0 24.325504990434638 26.19261394764194 14.982886016390369
64 0 0 23.32017769361977 26.109591144643485 16.46213803941319
65 0 0 22.640811548934856 27.02319946275342 17.842687278449304
66 0 0 22.87475379267155 28.385622272573173 18.98247721919003
67 0 0 24.162939305977115 29.591876807345418 18.687586571675478
68 0 0 25.651709211827168 0.5878997438748864 18.798329243668476
69 0 0 27.188158967961463 1.215630191709939 18.11913606733058
70 0 0 26.95257906453897 2.422226516041498 16.829680268224298
71 0 0 26.48971365354299 3.5709603296982095 15.550178112871619
72 0 0 25.716352701703904 4.868809912156927 14.58813394069087
73 0 0 24.543545822088344 6.092791222486346 15.203241563254933
74 0 0 23.262403751229808 7.357829324383156 15.226467635850199
75 0 0 22.7657441684043 8.470348501508305 13.922388895884668
76 0 0 21.966896944743258 8.725417968873039 12.358287951116148
77 0 0 21.682888055202252 10.238523768770666 11.474460541354354
78 0 0 21.80242135821632 11.504910063124111 10.221010312356533
79 0 0 22.173723715781755 13.027849223037846 9.352536860464825
80 0 0 23.332003317576387 14.099916765259978 8.519532834540543
81 0 0 24.490494062362373 13.056512011701322 9.420870317434634
82 0 0 26.139812432732725 13.777531487588076 9.377201204743022
83 0 0 27.678867721150922 14.699634160399164 9.461482473679439
84 0 0 27.26475093599073 16.286604648631723 10.174111891907472
85 0 0 26.34424561101364 17.80937107433807 9.979094081000314
86 0 0 25.234479218728485 18.902621879983748 10.86906533485702
87 0 0 25.084317806279785 19.954310782130953 12.31589692458683
88 0 0 25.004186517640253 21.20669664128427 13.600696304786448
89 0 0 25.195455638726965 22.74065914593304 14.512539644641782
90 0 0 26.0022352905638 23.91804022186542 15.598869544361841
91 0 0 25.81342643198699 25.31444688979651 16.705178070166337
92 0 0 25.921773658425117 27.047670977446074 17.161447112141023
93 0 0 25.077987103096156 28.43662940041281 16.401851167656815
94 0 0 24.23735243391441 0.01454109055507156 16.27054001769553
95 0 0 24.1687771341408 1.592293124472935 17.112435126778077
96 0 0 24.850516976344363 2.723759368541691 18.32008960516176
97 0 0 25.899617382218214 4.11115979391517 18.733194044873272
98 0 0 27.34301607414613 5.024633513407164 18.188580626877183
99 0 0 28.489274060530033 3.784647201959311 18.792552927748797
100 1 1 0.012138427580770574 11.50058068055989 14.612388489753533
101 1 1 0.6008878750004742 10.481776944134005 12.887781307252755
102 1 1 2.085963911282828 9.894179221027395 14.212365098033198
103 1 1 3.011972323593131 8.048455943725681 14.67545912123092
104 1 1 3.105774642750706 6.440607259308611 16.006494643912593
105 1 1 4.170300875251045 4.710532393285618 16.11988348763454
106 1 1 5.995515479794099 3.767296415011781 16.357350248926828
107 1 1 7.851077559270309 3.140127326405349 15.711451991820251
108 1 1 8.325210436293053 3.849000880246967 13.836422542933624
109 1 1 8.334034136589404 4.036046157511231 11.733871865190446
110 1 1 7.42750786617485 5.539439272061624 10.696632038061004
111 1 1 7.557351909399237 7.60099233630022 11.001387323938806
112 1 1 7.850384438052029 7.463976604048817 13.101684382479254
113 1 1 9.660460795938603 8.145646638052918 12.369850748330817
114 1 1 11.465575603933011 8.896481272122257 13.172050968217718
115 1 1 11.57160959240087 10.542409364295391 11.85993270079101
116 1 1 9.557742156925485 10.584948847347825 12.322148481927178
117 1 1 8.475638106601155 12.220741968616885 12.957702475909452
118 1 1 6.922492928531803 13.53190762897298 12.584542861342294
119 1 1 7.39717970194386 14.228996115296434 10.684956275451807
120 1 1 8.67247235840179 15.87191440838244 11.010229782857543
121 1 1 10.034404467906237 14.539036345413766 11.846223258678856
122 1 1 11.740221371526689 15.508089655908533 12.626134769284116
123 1 1 11.300065502488295 14.86880444633781 14.578088820239907
124 1 1 12.808761629323195 15.634113644757681 15.787882696587648
125 1 1 13.183937159558042 14.91323874549796 17.681888053519206
126 1 1 13.110970405412104 13.703124127349422 19.37599972564227
127 1 1 12.018100555841873 12.40529521110146 20.559190798609485
128 1 1 11.758179629725952 10.489928510735583 19.945741108158014
129 1 1 10.126928072234477 9.58821794754588 19.127553113440424
130 1 1 8.311349166813168 10.385959141421079 18.538149788174852
131 1 1 7.147619217221573 11.019719119866114 16.979242172526693
132 1 1 5.416232458467211 10.21987574033503 17.81630844699957
133 1 1 5.344720548118751 10.391937234280894 15.733839504576295
134 1 1 5.491123972046814 9.824709062768083 13.756889351583052
135 1 1 5.4578319999872384 9.623260192287411 11.6947315534608
136 1 1 3.781748952671336 9.343975387685028 10.47201739596764
137 1 1 2.801789084136623 9.586654427056178 8.64796641423829
138 1 1 1.9342856807856952 10.49981792179658 7.010392442037906
139 1 1 1.509044510696445 10.826735547455913 5.015782757189185
140 1 1 1.8434988860493045 10.31440701343161 3.008861895973936
141 1 1 3.0242098432850857 8.665135054153254 2.662947479814513
142 1 1 5.042768748293838 8.212145141966058 2.561897066439147
143 1 1 6.42699881988378 9.317399497173323 1.482998060429674
144 1 1 5.273730639918314 10.168654105624219 0.005566447546459929
145 1 1 5.435214803454375 11.261136427792056 28.278743513280983
146 1 1 6.940791787926088 11.992995619786171 27.065381205378873
147 1 1 7.34536104442926 11.854825015988615 25.026487744122566
148 1 1 8.22162072894902 11.953205274085004 23.17623107025921
149 1 1 9.876486583044528 13.019620258119568 22.574799840351705
150 1 1 9.24367390130155 12.958549988689825 20.6138302739809
151 1 1 10.058013901090764 12.15882215918886 18.922380574262647
152 1 1 10.808708883110919 11.934363360002282 17.0396957258299
153 1 1 12.271634671919935 11.93144029456528 15.601871796396475
154 1 1 14.259730139226184 11.606231448013157 15.187123424283604
155 1 1 16.208782466504765 11.017673476063145 15.525161692820385
156 1 1 18.19599015530409 10.515130378702883 15.413549812943888
157 1 1 20.227309293740536 10.259250310673716 15.551494519529502
158 1 1 22.294421906157325 10.071654734619838 15.512168259894672
159 1 1 23.8920631299691 10.997104905785744 14.577101087551368
160 1 1 25.69347898262373 11.542029921919587 13.726941790674605
161 1 1 27.571288855493933 11.920466036811298 12.981783470071932
162 1 1 29.335854015601992 12.92109806883654 12.671990897784987
163 1 1 1.2798571154457403 13.57734236436588 12.599475456405742
164 1 1 2.6360461098111827 12.90996658372244 11.191593917913993
165 1 1 4.454117892436479 12.325098043237348 10.379706151263099
166 1 1 5.067550418900018 11.421865645882479 8.599387389828182
167 1 1 7.107471624196178 11.57375748073273 8.248824056233456
168 1 1 9.10298641637448 11.660882090452898 8.826938933856846
169 1 1 11.123827976820753 11.439755030677533 8.493858515589698
170 1 1 12.674956431708667 10.083732528462669 8.417013921387067
171 1 1 13.737333269004603 9.273492036842203 9.979807267705603
172 1 1 15.394741812481653 8.296987696048237 10.694017978062318
173 1 1 14.892161150028711 6.329361197187668 10.405994123671224
174 1 1 15.428905927235531 4.770025514719963 11.664094305105825
175 1 1 15.660752328488487 2.7850931039979505 11.025145502726792
176 1 1 15.62997959697054 0.6889221962097654 11.08074218970845
177 1 1 15.63859255505625 0.49627622965196005 13.15079832977771
178 1 1 16.491750255640326 0.45688401527360417 15.058163401992886
179 1 1 15.674611581374656 1.2184083319283816 16.824284219126046
180 1 1 13.772006509402901 1.9523043531346 17.3334268945918
181 1 1 12.418549249312305 3.0678770627144485 18.437891327364298
182 1 1 11.462706244629757 3.8234217174447944 20.113737185307
183 1 1 9.437977168140069 4.185541959769326 19.752167585844084
184 1 1 8.53420958339201 5.5793291269788945 18.490894170518
185 1 1 7.363845476614518 5.93667955639492 16.801103139717316
186 1 1 6.314632115126949 6.09104657173522 15.019759652755019
187 1 1 6.5042539567988324 5.493696495030714 13.044179612457123
188 1 1 4.942144144035194 6.360844905963375 12.009638755933844
189 1 1 4.200913316682353 4.980851950463452 10.696737086942974
190 1 1 3.7181956118770776 2.995182241589274 10.531448940913831
191 1 1 4.152680336259355 2.593081431005183 12.526298436528586
192 1 1 3.279078669878938 1.9474616001828156 14.300860089830074
193 1 1 5.235604500151343 1.3098299386196945 14.471843754387232
194 1 1 6.635404252993459 29.7811726332306 14.670557457934086
195 1 1 8.704313171696679 29.700529942673832 14.918579615378704
196 1 1 10.771639012886645 29.913082124626186 15.122495903116764
197 1 1 12.693456198028004 29.979738558973978 14.360049075534604
198 1 1 13.834387100769368 1.7028101715799453 14.610183878107804
199 1 1 14.873228969972086 3.2395843151573795 13.647058033796108
