ITEM: TIMESTEP
273
ITEM: NUMBER OF ATOMS
200
ITEM: BOX BOUNDS pp pp pp
0 30.0
0 30.0
0 30.0
ITEM: ATOMS id mol type x y z
0 0 0 20.635611676984375 17.388964382482353 9.491081018415953
1 0 0 19.041178452423484 16.776052338926885 10.022142505605856
2 0 0 19.551241498002486 15.819463739329176 11.44440151555965
3 0 0 18.50057415047285 15.526071042113207 12.86850426403218
4 0 0 19.184420870229573 14.526833484555434 14.184000777210255
5 0 0 19.164017158243308 12.751200826148661 14.41748410081319
6 0 0 18.329616517193976 11.554373862503729 13.388311192657417
7 0 0 18.395502500390442 10.051687712330867 12.424496162514101
8 0 0 18.27779782027619 8.823290095033544 11.117510684981031
9 0 0 20.005306197933166 8.451035013213769 10.804694668866246
10 0 0 21.647026950371053 8.890415088853098 10.275696245031124
11 0 0 23.351569097954616 9.352094882081232 10.134893543191021
12 0 0 23.630680726233557 10.364169204315031 11.5713864420542
13 0 0 23.434046913388443 12.137045942687491 11.459066774434037
14 0 0 22.8059837076028 13.195041053628634 12.744827596076652
15 0 0 21.03956109421879 12.919601374501596 12.790113105852624
16 0 0 19.808580820687478 13.347389026496463 11.527986170285908
17 0 0 18.501305571702744 13.132986889721181 10.296508421792256
18 0 0 17.602956139025157 11.59224551197536 10.475244912794771
19 0 0 16.414394909013613 11.206825229161998 9.208091119637595
20 0 0 16.63877003586912 9.74295464640545 8.220596795145998
21 0 0 17.15894163320214 8.171410698913752 7.53241855453819
22 0 0 16.978846858035666 6.464460353851365 8.0220197532834
23 0 0 16.525849942253146 4.746979079972302 7.983577632784567
24 0 0 15.401893177375577 3.405686059343088 7.6636872174320665
25 0 0 13.967158042252601 2.442310872270784 8.166519933890124
26 0 0 12.541238631650836 2.3755144525670255 9.24844089271213
27 0 0 11.831223754683988 1.488113067566926 10.625573576858946
28 0 0 10.908285209042992 2.888167430440539 11.225525638471142
29 0 0 10.637856460599613 1.9684392875766186 12.734077761571804
30 0 0 10.54025507734159 2.4627917859536805 14.448012521159217
31 0 0 10.515097152436615 3.910877195966639 15.482685500634158
32 0 0 10.728505631378022 5.450261813015806 16.365889965380116
33 0 0 12.145696935253602 6.0757407429691535 17.252991193872845
34 0 0 13.539442183038181 5.576033091596424 18.25945506126816
35 0 0 14.534362744740557 7.034736388283951 18.524834860178032
36 0 0 16.149310529976454 6.663052118142846 17.82994117816268
37 0 0 17.355355674163352 7.967444281633899 18.05872275483505
38 0 0 18.76722917660306 9.032479917416287 18.20571304660049
39 0 0 20.537082570735677 8.909051425416193 18.375470624247942
40 0 0 21.97671155363841 7.834293436821872 18.252857863490807
41 0 0 21.569189872372743 6.970540334764762 19.76195113337473
42 0 0 22.201720366824908 7.857395376229187 21.17629758250821
43 0 0 22.06156391143508 9.108364297641165 22.44126536884343
44 0 0 20.561189022189705 8.99781286865328 23.416337596534508
45 0 0 21.082388868942896 9.946822691938475 24.850977620028804
46 0 0 22.798507089929146 10.423648148391104 24.891130397040627
47 0 0 24.342685954476465 10.63667930746389 24.019998565441455
48 0 0 24.28817940602206 12.278976438560969 24.728345177650674
49 0 0 23.540380598930895 13.891200491870574 24.922468401730224
50 0 0 24.676984796714454 14.879879622120557 23.94162752271456
51 0 0 25.459079752483458 16.20827449792184 23.018334843914065
52 0 0 25.441471833692525 16.71434724463115 21.304674678632516
53 0 0 26.173275283976334 15.793670369454192 19.955303992942426
54 0 0 25.86069926536671 17.279682336343505 19.00038598059405
55 0 0 27.084986505011802 18.043660888583016 20.06224474406635
56 0 0 27.571690908941132 19.430158158592327 19.047229688491004
57 0 0 28.347864978414893 20.990611388239586 18.64113231221596
58 0 0 29.378688741233532 21.484341656073855 17.25693163952087
59 0 0 29.036170331761088 23.03429522928826 16.409733129991658
60 0 0 28.423424575958283 24.114251137538893 15.112766646713649
61 0 0 27.24574571966403 25.419824101200472 14.794759765406392
62 0 0 25.520586892590973 25.722459125311104 14.448499149129372
63 0 0 24.17073260105886 26.516700111041423 15.30534714354421
64 0 0 23.59792894183832 26.466096383977245 16.996717479429993
65 0 0 22.673925127664056 27.05218122016963 18.415545384431876
66 0 0 23.07917959966866 28.49006808603602 19.41113607414009
67 0 0 24.403184673130774 29.64038672369274 19.064089782584986
68 0 0 25.99487843732614 0.44470112168527093 18.90226159769548
69 0 0 27.378771196831597 1.4399442511705989 18.361449685344965
70 0 0 26.871877359158646 2.6911186667892353 17.191445206812276
71 0 0 26.67845686162534 3.9689456682821316 15.958723806473202
72 0 0 25.350293144176742 4.719101702098854 15.022876593598703
73 0 0 24.696545815407877 6.327344026421007 15.467807555641333
74 0 0 23.32368718637581 7.4789301088834215 15.510152010543566
75 0 0 22.764139464980214 7.818796020343843 13.837124210075723
76 0 0 22.059828361028092 9.193497142990049 12.915318012581649
77 0 0 21.205163956935152 10.428455918575478 11.936541273700819
78 0 0 21.140817061683734 11.38222239110422 10.422736429812975
79 0 0 21.68616237486365 13.066709117235812 10.145457264836649
80 0 0 22.89148625224442 14.042705614024754 9.240906677541332
81 0 0 24.437202510365303 13.325611792098918 9.813501293862165
82 0 0 26.04778417558474 14.108278765788693 9.916626397822633
83 0 0 27.694273172093897 14.802226138717847 9.92481147355589
84 0 0 27.30969118137664 16.500379790366647 10.348225326651106
85 0 0 26.070202151821352 17.79284284880436 10.234090245654277
86 0 0 25.217456120979186 19.058671226643302 11.169715049615462
87 0 0 24.893384086687742 20.14743805803171 12.554230298060618
88 0 0 24.66349074634363 21.556040037956905 13.646629704726577
89 0 0 24.888180800144735 23.06288753396847 14.601649479150977
90 0 0 25.596577467537287 23.66179977105744 16.141191113586306
91 0 0 25.82759467595819 25.336142759443874 16.733778981940794
92 0 0 25.83895205146452 27.047148805328096 17.252853107827164
93 0 0 25.320168390173045 28.616477411176415 16.57527734448299
94 0 0 24.300031161245638 0.0800606039670711 16.436155922561714
95 0 0 24.061462599963384 1.532596779853728 17.453561693903406
96 0 0 24.66217852102345 2.5437187427067234 18.804408699129795
97 0 0 25.791224213814157 3.8840183277308977 19.15923310910418
98 0 0 27.029013543132816 4.873943485832779 18.335420231857544
99 0 0 28.50178485507629 4.127449120398149 19.023736271078292
100 1 1 29.849235769658193 11.331883017896446 14.64844037733534
101 1 1 0.3545249290925622 10.32618978099052 12.935359354246227
102 1 1 1.8330526318892308 9.876266785705766 14.331884636454962
103 1 1 3.039477535241952 8.192930801117091 14.500247866758048
104 1 1 3.050498690362768 6.539382752794801 15.782164768376022
105 1 1 4.233370551047361 4.860374255986143 15.937099302437794
106 1 1 5.9913287467140295 3.894932799550784 16.3213650913371
107 1 1 7.862906709359475 3.1431038950652717 15.77245139225297
108 1 1 8.095709918992132 3.5896452625120623 13.73032590987463
109 1 1 8.69553989264352 4.002940447784423 11.814828848374912
110 1 1 7.806401388795688 5.707809210162644 10.97920005416396
111 1 1 7.860844860214163 7.744568744113157 10.88903263131381
112 1 1 7.909703550992696 7.562951225277887 12.995240625048543
113 1 1 9.902292588901885 8.023396652965191 12.565436976044387
114 1 1 11.645897775713037 8.93858764791634 13.248881882492752
115 1 1 11.618944641998425 10.442997160916594 11.841477489415379
116 1 1 9.669282143305328 10.620083434498497 12.41107409482375
117 1 1 8.518340046852332 12.233734402697959 12.938846553045552
118 1 1 7.153744106912522 13.717868386588227 12.465896692990796
119 1 1 7.502611175155799 14.32717274409851 10.51864606742315
120 1 1 8.70678670877337 15.96387544760693 11.12164048174192
121 1 1 10.381843543785768 14.924539205443471 11.819523281330998
122 1 1 11.930651460095827 15.897969910694089 12.769728249506613
123 1 1 11.399041720644245 14.921286309180706 14.518671350300586
124 1 1 12.807812803838358 15.692200770897953 15.845279739152916
125 1 1 13.100083256551324 14.819113093100915 17.72779513271882
126 1 1 12.918879854646937 13.573597557015939 19.37346063802946
127 1 1 11.875391072170558 12.295751930828018 20.619365795454012
128 1 1 11.85981581229164 10.41046818717288 19.79953956463612
129 1 1 10.235072004938523 9.330186234105174 19.133713204136413
130 1 1 8.359994394825051 10.100325680278768 18.703657886977204
131 1 1 7.334871286192501 11.124228793832623 17.186245612125738
132 1 1 5.4676147190864075 10.337981674840576 17.693073187123268
133 1 1 5.381553193731787 9.91627943501978 15.677539891332017
134 1 1 5.507340036072127 9.59440820996916 13.633145762310638
135 1 1 5.418807182971785 9.656213766691419 11.570334580621244
136 1 1 3.683371906973086 9.468153340860473 10.470879815585365
137 1 1 2.7538894867022474 9.673570024924116 8.641416650268445
138 1 1 1.8082298906927576 10.310082432043815 6.918920173043062
139 1 1 1.477839099043783 10.758128905478165 4.925754269244363
140 1 1 1.906595876679578 10.242349976717286 2.9797960862775907
141 1 1 3.1795739090688024 8.578574876407284 2.8029023784416953
142 1 1 5.215860035234274 8.231578582514345 2.6535380249111435
143 1 1 6.4390410023729805 9.426433081515189 1.5097169855008505
144 1 1 5.15171052433973 10.183406394031683 0.09494084959784412
145 1 1 5.4476457726099685 11.146768486823145 28.28084119961472
146 1 1 6.951665721880896 11.782132210345972 26.98598113455781
147 1 1 7.286486374774384 11.847517658187456 24.922433328163514
148 1 1 8.430133125750086 11.80349635800891 23.175198430215943
149 1 1 9.942133126867533 13.014108480248654 22.519908103683807
150 1 1 9.093044122381738 12.89944313019846 20.644605815342818
151 1 1 9.974194322477043 12.045994830745963 18.94529258797472
152 1 1 10.886885084242031 11.83917286680265 17.04931244779888
153 1 1 12.267272920240151 11.977565821793231 15.461342827333848
154 1 1 14.258226438719577 11.443977489277332 15.073938342171289
155 1 1 16.197872106785603 10.986041247083639 15.681534479041924
156 1 1 18.150582271677663 10.307654937399993 15.380697548955519
157 1 1 20.19496115137601 10.376159404766701 15.7550672959122
158 1 1 22.23048349814372 10.081668124316403 15.498066802647859
159 1 1 23.744300071783968 11.249623768288087 14.64261046494331
160 1 1 25.671176030250297 11.604399464366683 13.875057227181324
161 1 1 27.472305595117295 11.907442680311192 12.870178549395455
162 1 1 29.302503297609043 12.877270098227783 12.68658708131069
163 1 1 1.2818215540523417 13.484400593784041 12.576132592898022
164 1 1 2.7371136703986885 12.95992256994879 11.178619544381137
165 1 1 4.420000400931401 12.211051239001193 10.188323593194083
166 1 1 5.006004426825265 11.338171441754959 8.389377451805746
167 1 1 7.069974208500371 11.127761855164154 8.331372669993105
168 1 1 8.999258753358328 11.538611083555098 8.957484153953295
169 1 1 10.994840040806054 11.474553343773232 8.417770763625976
170 1 1 12.49529274812528 10.10921828675763 8.169966986929365
171 1 1 13.668493178272662 9.262713153105683 9.625300701159242
172 1 1 15.329975606850114 8.590459152666819 10.66971935811717
173 1 1 14.916338861729464 6.596478485329468 10.356941293582288
174 1 1 15.56801162921436 5.119902328454239 11.634042890396604
175 1 1 15.707524374879284 3.075115543103618 11.254184506730207
176 1 1 15.574577307444258 1.011587261437388 10.950965140705112
177 1 1 15.549268941870888 0.5338354707238087 12.966131614706356
178 1 1 16.305580044422015 0.463545688862248 14.891533955857788
179 1 1 15.60741291873734 0.8849027123086014 16.789375255580467
180 1 1 13.866001807121565 1.9136334322427968 17.080559359663237
181 1 1 12.571693526285564 3.038028315031372 18.208577793240654
182 1 1 11.774840646800223 3.4879891147995625 20.06218849896027
183 1 1 9.881479834014012 4.130015186204017 19.509167503983438
184 1 1 8.579169184919282 5.304229595179776 18.41815787782189
185 1 1 7.405636898015978 5.966840200509388 16.87667035245993
186 1 1 6.149994276481077 5.992731198156411 15.235104431927029
187 1 1 6.224391861559756 5.458821340402122 13.24940177530412
188 1 1 4.623953450737788 6.3244885060518685 12.349790750230666
189 1 1 4.257650169480704 5.208140019778533 10.677766011308686
190 1 1 3.7803678197090953 3.2308394599209556 10.380053842965166
191 1 1 4.241361263894503 2.4082690160994846 12.243183213809951
192 1 1 3.287295693702284 2.0021412449728677 14.054649688495692
193 1 1 5.167412937902891 1.200519429845901 14.252248798987576
194 1 1 6.5470617065294086 29.698054572905846 14.468711695054697
195 1 1 8.541178207872155 29.64310087126 14.966783701213203
196 1 1 10.561850215457495 29.97088272103551 15.173444123346657
197 1 1 12.45862327304581 29.82104823079303 14.373323102792106
198 1 1 13.755393768764163 1.4468272512028069 14.332401355665136
199 1 1 14.534814090443735 3.1728497659493904 13.470900790684995
