ITEM: TIMESTEP
287
ITEM: NUMBER OF ATOMS
200
ITEM: BOX BOUNDS pp pp pp
0 30.0
0 30.0
0 30.0
ITEM: ATOMS id mol type x y z
0 0 0 17.782332989499462 17.879712165288794 10.83649300250626
1 0 0 19.119280879796047 18.550817860184026 11.806437282868552
2 0 0 18.313402423272674 17.47151697362854 13.000194187821839
3 0 0 18.439042550200174 16.83118125645513 14.659142344002749
4 0 0 16.963661296519756 15.951148970300151 14.130025553633843
5 0 0 17.091598322599808 14.684098334123501 15.392862124012447
6 0 0 17.72573133142014 13.020967511375598 15.193027896478847
7 0 0 18.364569164909312 11.787183002905588 14.07923492841649
8 0 0 17.95543861301519 10.360606301788225 13.082095190714671
9 0 0 19.254951137805033 9.145826222799196 12.848034318099257
10 0 0 20.91576421329043 8.641906160589949 12.351220162071616
11 0 0 22.197365763737636 8.677473645208039 11.082193383380334
12 0 0 22.447428327270874 10.41618388080987 10.776698775726441
13 0 0 22.87502199320083 11.573251696077806 12.075092830797656
14 0 0 22.251039335192537 12.87018189566219 13.148886449743049
15 0 0 20.732038043945526 13.803360704900328 13.403076653339927
16 0 0 19.225163310381124 14.160514651062725 12.48879673546061
17 0 0 17.925396919288204 13.327546370572733 11.581357714174697
18 0 0 18.252560895332646 11.74695279593919 10.803942431192889
19 0 0 17.90075214313438 10.047604187074011 10.321197551063287
20 0 0 18.46819926289813 8.372317508249576 10.698648117856456
21 0 0 18.76184427495994 7.064045623964755 9.509257218604848
22 0 0 17.117736389352185 6.385736563710018 9.315513774991619
23 0 0 15.49965399594159 6.451878173632661 8.586463116538665
24 0 0 14.321273686912788 5.829299507817744 9.797699121116436
25 0 0 12.899455727023389 5.186233299429213 10.709441390700686
26 0 0 12.195829685372255 3.6739223657049327 10.075194578987656
27 0 0 10.719952029901101 2.9334514691913225 10.753506853802076
28 0 0 10.927030209794847 3.1512944306979507 12.530403189345868
29 0 0 10.664430622532024 3.4943706012753157 14.27102195940279
30 0 0 10.980094828146086 5.029757282404858 15.146656314195871
31 0 0 12.749419617267174 4.812640689264709 15.489869867739296
32 0 0 14.289798101422663 5.588538881618837 16.03474025595613
33 0 0 13.546831465390008 6.806048115539714 17.106238647977786
34 0 0 14.309130193868711 8.136075174844967 18.026238504587408
35 0 0 14.934742978686618 9.609551794694365 18.787586086051327
36 0 0 16.645553775697387 9.67289353041792 19.299138630375044
37 0 0 16.849996987267616 7.932234707224124 19.626900979553742
38 0 0 18.492627939115916 8.582524570691078 19.415792192558
39 0 0 20.02627735475361 7.917966018190084 20.03662548006383
40 0 0 21.719343388115693 7.383132365905318 19.843175065097608
41 0 0 22.194761378353633 8.972493962094067 19.174572984027893
42 0 0 23.694564307027424 9.326268024849801 20.073502529773368
43 0 0 23.03247278146933 9.250649201866164 21.747516359390392
44 0 0 22.842833069998655 10.912942730773466 22.377936891096308
45 0 0 22.734381916652378 12.115677197778847 21.058174340882783
46 0 0 23.042139030905172 13.48695485495381 22.163183105433223
47 0 0 24.658906779464036 13.59779575557013 22.924358062551956
48 0 0 26.272923288430427 13.713207469283926 23.702145284315186
49 0 0 27.04194038046121 15.26182183564624 23.289956935235985
50 0 0 26.036030537282606 16.026348214076517 24.54664421919454
51 0 0 24.862744551450472 16.234297527750073 23.204597732084316
52 0 0 25.885795650989742 16.939724027024432 21.89163788974763
53 0 0 27.006199655452463 17.960980587980583 20.906232854420477
54 0 0 28.46670901702786 18.63938298942982 20.113944032860722
55 0 0 29.234323960421264 19.504498290989467 18.748717707987247
56 0 0 0.030257736493513997 20.944886403993785 18.03164953302347
57 0 0 29.67531104711231 22.39924338645911 17.042334945159173
58 0 0 28.649004863943475 23.240472726263853 18.247904028362896
59 0 0 27.224127426328007 23.47078481972544 17.187181651339788
60 0 0 25.630998834336346 23.961993491159028 16.544271880133802
61 0 0 24.868922329032838 25.468519561935537 15.959127877619444
62 0 0 24.084886637795943 26.977172572463232 16.51406215899253
63 0 0 23.05440769143455 27.8178393952718 17.709093046949526
64 0 0 22.911486904808463 28.21962001005065 19.442760322641597
65 0 0 24.192297900319495 28.661521603125916 20.61693197541395
66 0 0 25.83864392861996 28.69055376493192 21.323260195196426
67 0 0 27.165183324256972 29.77731889772703 20.83457463599557
68 0 0 27.296680345509923 1.3687410866206429 20.021742640499525
69 0 0 26.900132880129533 2.3558353257894606 18.575811201137352
70 0 0 25.516605033494272 3.483039606139913 18.780845724073128
71 0 0 24.909736620299597 5.148402360989171 18.549152690648604
72 0 0 25.101359407378148 6.293708180810714 17.202248930299646
73 0 0 24.00513869029236 6.208300961548437 15.804124676670599
74 0 0 23.11243242557226 7.241655237878025 14.656982860809064
75 0 0 23.632225186647307 8.9283251089833 14.435190111258791
76 0 0 22.33615388500387 9.989131069505408 13.801275958638307
77 0 0 20.98714079838086 11.063760241346635 13.32519825909757
78 0 0 20.406789870227033 11.672798837085208 11.754102695080276
79 0 0 20.383264457255517 12.861142698146622 10.418687974064301
80 0 0 20.021767338144247 14.629147435897325 10.443316800038486
81 0 0 20.980445942636326 16.14710192848804 10.255255706774442
82 0 0 22.30901737569282 16.915605856341703 11.16405360599643
83 0 0 23.295551384468382 16.524175696047017 12.591401320089606
84 0 0 24.763722757552962 17.527893994623753 12.447826459141679
85 0 0 25.590729381196546 18.728513087270844 13.488195281679587
86 0 0 24.760485123990065 20.310697975344862 13.606465639922908
87 0 0 24.412607969030166 22.029887803202705 13.959602271570448
88 0 0 23.642543512137696 22.986619360873117 15.268196020156653
89 0 0 23.055935952391604 23.482215369704083 16.890090934007574
90 0 0 23.770548464109744 24.53968506891156 18.148990178573353
91 0 0 25.119856610907807 25.690724908330804 18.39693071749956
92 0 0 26.752287156782106 26.383005092687128 18.153388105782877
93 0 0 26.11217892424999 28.037459212962005 18.291290124061586
94 0 0 25.386599531229592 29.564957652322985 18.854539527698517
95 0 0 24.90045073931248 0.9143598043106588 19.933147185150055
96 0 0 24.031921012794246 2.3293393635202833 20.617958524590257
97 0 0 24.739974833540437 3.7702198067957013 21.411455997778948
98 0 0 26.296841461011443 4.521630654953348 21.86555389360802
99 0 0 25.433877466559206 6.0075883667043835 21.368445939091504
100 1 1 27.95441195536252 10.409135562004677 15.29443948832415
101 1 1 29.004823954488923 9.273347491070924 13.88807207759389
102 1 1 0.9333306647778286 8.887414446744044 14.450017831640691
103 1 1 2.744277382664678 7.853829907832158 14.479637998272787
104 1 1 2.5755805067601223 6.91762311455973 16.32849215508332
105 1 1 2.987518228868022 4.951432415500382 16.45466769202429
106 1 1 4.652955525495127 3.9324550103199227 15.785560299693019
107 1 1 6.350379408250486 3.778291613646432 14.615984411232729
108 1 1 7.574803693187623 3.02046008452681 13.100263451357215
109 1 1 8.417695589035723 4.934923993492945 13.181150750086674
110 1 1 10.252337224528754 5.608468681049684 12.430656193472307
111 1 1 10.081556384959828 7.397697998779696 11.505456837355624
112 1 1 9.528311972999367 9.009041393215718 12.654989644689525
113 1 1 10.403030091457893 7.666178272764973 13.954333073252421
114 1 1 12.15293526598202 8.694675895188535 13.51182168887372
115 1 1 11.798465615686418 10.022382469569074 12.002239657168754
116 1 1 10.969070220257068 11.752736276833998 12.842861310311891
117 1 1 8.931519901080424 12.31276685574859 12.624467552895256
118 1 1 8.03579009460545 13.915369172192982 11.599224680248655
119 1 1 8.816391696322539 15.643810194994584 10.768349498607009
120 1 1 10.612831600837831 16.700260421109583 10.979038318870954
121 1 1 11.727213895718494 18.15936529933457 11.976032013509332
122 1 1 12.80804147350549 17.959995038444802 13.733871127065928
123 1 1 12.622270613497028 15.96216155849962 14.278455998666848
124 1 1 12.535013823375326 15.432369919490466 16.267324830001506
125 1 1 12.175520716691041 14.169648542223676 17.825361996274324
126 1 1 11.723988866022234 13.06336262136525 19.520083357775736
127 1 1 11.392810796862305 11.174353019037946 20.365681563027515
128 1 1 11.997648411475655 9.801479440440604 18.94374901665597
129 1 1 10.518645889969655 8.429934181382393 19.287429573682132
130 1 1 8.697333916120945 9.214135316338684 18.738131945180896
131 1 1 6.8876838265886615 9.28385348872846 17.746115468911327
132 1 1 8.131417073502591 9.76498504269636 16.146556980069175
133 1 1 6.404100230806306 8.941290623436528 15.419267310449486
134 1 1 5.500345640453152 9.31679071769661 13.604656285267271
135 1 1 4.35430463966365 9.421827488045993 11.87946361652186
136 1 1 3.431644585153109 9.831136258989018 10.078866062297966
137 1 1 2.0877229348037756 10.114427606235434 8.52514404456468
138 1 1 1.5832361291297945 9.332878718116504 6.68260311857354
139 1 1 1.4144630121297137 9.792516891589196 4.664108297620087
140 1 1 2.5475854859580553 9.38076097924002 2.9920621261358176
141 1 1 4.272955249209873 8.534375479022174 3.6976082306052036
142 1 1 6.256245292362047 8.62646786885469 3.0811782122746814
143 1 1 5.98236572071864 10.059345458543978 1.6154527778743932
144 1 1 5.030446708125887 10.569648019359324 29.842611248957045
145 1 1 6.23026906497186 10.190419645904377 28.21240757521791
146 1 1 6.210170860781536 10.409476274440614 26.151112865421098
147 1 1 7.568265848892739 11.22486044589483 24.819612738015255
148 1 1 9.322200384446445 11.387736238714751 23.782562941869102
149 1 1 9.439370035928231 12.644843599766613 22.140419801555673
150 1 1 8.924635237435927 11.81113462465254 20.3153193456115
151 1 1 9.778916216894675 11.683169785801814 18.43937419111936
152 1 1 11.118403431871899 11.566770731921192 16.881690936711987
153 1 1 12.72560682678339 11.390511609536265 15.582752403892181
154 1 1 14.632899136416038 10.577435402589863 15.381728340564521
155 1 1 16.51158983471236 9.879156631104998 15.950907343779175
156 1 1 18.315190723255913 10.356595732304202 16.907957060494418
157 1 1 20.375048593966515 10.682232485192467 16.65357434565652
158 1 1 21.86169582356888 12.159193842412124 16.72879886372245
159 1 1 23.73344640811413 11.58382410421793 15.953171569906035
160 1 1 25.249683254344443 12.262743255698588 14.647364314611035
161 1 1 27.0838553856064 12.549491010747976 13.640140714365046
162 1 1 28.65071076419192 12.151997508686838 12.29941745414438
163 1 1 0.564444694295861 11.924039303438196 11.489376188910533
164 1 1 2.464097191362567 12.217135992248407 10.679201568301771
165 1 1 3.641879490665977 12.360838721162915 8.978200504179515
166 1 1 5.254449819111275 11.082612837809954 8.943277175665344
167 1 1 6.2184049943339135 9.262933540583724 9.196640458732933
168 1 1 8.000078686088415 10.24344619368223 8.933428323508409
169 1 1 9.719258998814935 10.938443180141748 8.076285240287431
170 1 1 11.636378036709784 10.259497901464227 7.717675280530079
171 1 1 13.570533130546972 9.546664499048132 7.666704282053226
172 1 1 13.1771829249246 9.583020693271399 9.691112481063241
173 1 1 14.677230030105978 8.75296519993829 10.833756914149054
174 1 1 16.027220740682 7.265575714427199 11.364464194676946
175 1 1 16.157608721164532 5.22152884402118 11.732261846309228
176 1 1 16.167200342710434 3.1567280150120167 11.516356240990447
177 1 1 16.24878775925642 1.1102003846774366 11.755867797823045
178 1 1 15.013763433169983 0.2226374883475933 13.167514546368468
179 1 1 14.906757573138682 29.239686982086695 14.996242830038533
180 1 1 14.935014910195422 1.2272581286080864 15.594219380357215
181 1 1 14.128099303652407 2.2427063769728828 17.195746061870178
182 1 1 12.345807770764694 2.366638175212663 18.220683906960627
183 1 1 11.71187787453977 4.186229727139568 17.529616528839274
184 1 1 9.690639347847274 3.81679027552452 17.06926899880448
185 1 1 8.103677795464554 5.119003387268594 16.742305604247562
186 1 1 7.290733683433265 6.235534750523668 15.200267328477128
187 1 1 5.385798746643052 6.450531355737258 14.458914029327415
188 1 1 5.088552902332191 4.960642519306745 13.117733807720137
189 1 1 4.6091747883831315 6.226750047135951 11.563347810072068
190 1 1 4.663616471601721 4.346894069928437 10.689183262399503
191 1 1 4.209733588386404 2.5600520757647898 9.751837312865298
192 1 1 3.940156529332506 2.234014983810221 11.754014196244507
193 1 1 4.506136048705422 0.4337275819479179 12.52723007958325
194 1 1 5.997707756249611 29.324902022715836 13.382985092610514
195 1 1 7.3176622643001465 29.413187778882136 14.958215292362764
196 1 1 9.259136143169018 0.016634586490897246 15.390578555377758
197 1 1 10.98035901683234 29.197464687921016 14.572656745456475
198 1 1 12.290280491280294 0.2953169062575994 13.386065612552052
199 1 1 13.346754521151903 2.020193314202608 13.830917461753602
