ITEM: TIMESTEP
291
ITEM: NUMBER OF ATOMS
200
ITEM: BOX BOUNDS pp pp pp
0 30.0
0 30.0
0 30.0
ITEM: ATOMS id mol type x y z
0 0 0 17.561038736513904 17.999951147101036 11.099897951689277
1 0 0 18.083103593612087 19.071356163283806 12.419909658526132
2 0 0 18.070022194499696 18.05800416191293 13.888861645420974
3 0 0 17.967044542669658 16.874835574000866 15.215623475638074
4 0 0 16.98228251854779 15.69499723450105 14.27663669895019
5 0 0 16.82886427138572 14.741788775731735 15.81391463409153
6 0 0 17.644767251770215 13.494634219364373 14.841594486973928
7 0 0 17.571350344019972 11.724285897823263 14.541607099248004
8 0 0 18.52584184693126 10.674230449514717 13.433494655573716
9 0 0 19.33818522004542 9.152816862721814 12.946471606254683
10 0 0 21.00658594746856 8.739285297679723 12.42469355044615
11 0 0 22.773526155484806 9.057275859004559 12.469701698605244
12 0 0 22.415563666666138 10.050972581501483 11.00648632811207
13 0 0 23.12422535685538 11.676734973609497 11.262888048366962
14 0 0 22.728959886042958 12.949732314570136 12.450138255350968
15 0 0 21.323724314891663 13.327499468534066 13.47733597596321
16 0 0 19.632182681689557 13.374510239601934 12.888491606569485
17 0 0 18.195364137974078 12.93397970923808 11.900470251303112
18 0 0 17.64472748777538 11.546742752184652 10.902258689310385
19 0 0 17.1950778781659 10.37368814278537 9.620452314112365
20 0 0 17.723420086191265 8.661512034216097 9.64111733058783
21 0 0 18.08703819443102 7.132799244354209 8.746756073392337
22 0 0 16.56887067838499 6.262586863239658 9.017865121400959
23 0 0 14.950862733097814 6.5310056387188204 8.344404367317551
24 0 0 13.427043975446566 5.631161061118861 8.664834758440863
25 0 0 12.219950079612126 4.739360263576024 9.677301941595994
26 0 0 12.82914366759552 3.040543864375251 9.858354434674265
27 0 0 12.032997523333046 2.512114410803991 11.370151691120748
28 0 0 13.145913102303608 3.788886474648298 11.965983897065241
29 0 0 11.978979042598349 3.434527890832352 13.308784509757158
30 0 0 12.626250927679973 4.952772411488404 13.94669431809928
31 0 0 14.093280951932867 5.063823901691476 14.963019385044477
32 0 0 13.903478451716937 5.7505915010055695 16.593472535378012
33 0 0 14.2329762921714 7.489981892591223 16.31172432492488
34 0 0 14.886468972841474 8.468677254030156 17.64781778148309
35 0 0 15.102808766465934 10.10467927221518 18.32396701469928
36 0 0 16.160479876811557 9.510487889764937 19.64233792155153
37 0 0 17.314923216090556 8.338938390190807 20.34169133519863
38 0 0 19.106690125422386 8.426818763213708 20.36848747858356
39 0 0 20.22650366342298 7.361462674566486 21.27394068899072
40 0 0 21.297395235433527 7.6109592487533115 19.86913278288651
41 0 0 22.126725716119072 8.676619169315014 18.695667818887546
42 0 0 23.032393581185595 10.045716449286306 19.39050667036364
43 0 0 22.982208918036203 9.995012563868 21.182472235519462
44 0 0 23.514994841953886 11.419276437696043 22.140298196529855
45 0 0 23.108444481129798 12.316991437946086 20.64337307778495
46 0 0 24.0427900864266 13.773823416667014 21.0757236778913
47 0 0 24.814296962342222 13.418897682928524 22.641992400749462
48 0 0 26.001886267232546 14.716746969422168 22.968812490969274
49 0 0 27.615866754014963 15.499875425145623 23.021628606774726
50 0 0 27.41987685803268 17.061013302256864 23.87132948876917
51 0 0 25.90827239658974 17.60759264771509 23.088112202641017
52 0 0 26.471542661041163 17.49718863795748 21.400761831991165
53 0 0 27.850543955811737 18.606590520887746 21.57289963116375
54 0 0 28.156021141539696 19.634792203458762 20.158759853082945
55 0 0 29.511165363555957 19.520211158927562 19.011017526892008
56 0 0 29.649326283993695 21.21272231690277 18.44299326259615
57 0 0 29.290473677369018 22.399856210659284 17.146921411042538
58 0 0 28.174739430012785 23.660197112901656 17.77001027082714
59 0 0 26.5887933115048 23.072656859554222 17.19852568735442
60 0 0 25.241161882745892 24.134783283421243 16.709630557237425
61 0 0 24.629528055531544 25.81402469480264 16.604442983211616
62 0 0 23.669959104980315 27.11116545453977 17.379942715421972
63 0 0 23.093158355332807 28.34972802207968 18.527200563940173
64 0 0 23.716608770673837 28.446245032560185 20.19769207125941
65 0 0 24.71772334246118 28.73664423461305 21.652460565910687
66 0 0 26.474565081811363 28.669802568066626 21.322719595317448
67 0 0 27.121438151152127 0.2883119143124057 20.94342732702633
68 0 0 27.25846529306876 1.9306581756781378 20.2570536690309
69 0 0 26.594348990017604 3.2071156764147783 19.189157286706163
70 0 0 24.842369876307156 3.5573988569397947 19.133727665230044
71 0 0 24.876236887287064 5.31867834581523 18.875070244981305
72 0 0 24.770690539600423 5.721180291422133 17.138221614569193
73 0 0 24.07760109734718 6.785703656043154 15.874254585354423
74 0 0 22.952503168784844 8.172541336191927 15.824553934545605
75 0 0 23.53072117269793 9.397296240625595 14.66717837584345
76 0 0 22.127593750196233 10.486877977642965 14.527334008707427
77 0 0 21.341119561039104 11.052398481522566 13.023570687512867
78 0 0 20.419208896789694 11.76044406765717 11.658574798568658
79 0 0 20.477260473733395 13.204813669593777 10.59330838100054
80 0 0 19.819844005456016 14.872253628441376 10.629623002678361
81 0 0 20.727345405216894 16.219113803572057 9.878864789619515
82 0 0 20.644636047131005 16.85448434064863 11.550903571344431
83 0 0 21.958913906306044 17.816580382785133 12.29011773029232
84 0 0 23.11985097313689 17.992994110363977 13.642190991982318
85 0 0 24.658409473446824 18.8819921900404 13.845008044035263
86 0 0 24.945231322338024 20.6237968706566 14.17684096634889
87 0 0 24.120169129297874 22.132655661545826 14.688394642289804
88 0 0 23.109585169248813 22.71685730643907 16.04505564862918
89 0 0 22.71519192871324 23.781959461517953 17.42982221360382
90 0 0 23.670481239104948 24.643019176686686 18.669570582032836
91 0 0 25.104376409420862 25.49289335134094 19.290736426630385
92 0 0 26.52767731231197 26.5138750465919 19.012173073272262
93 0 0 26.110622690944794 28.243460251162652 18.97371615354026
94 0 0 25.927910234098636 0.009338034901549544 18.797237010346823
95 0 0 24.836013751371983 0.9316878778488134 19.879186050874782
96 0 0 24.258306416668653 2.0104106681396883 21.189321103565344
97 0 0 24.5796851889569 3.432210509426367 22.229842424565216
98 0 0 25.61278048291642 4.891722537528463 22.122412526151912
99 0 0 24.49846169923806 6.17544264621577 22.67849703293742
100 1 1 27.591528976501433 9.899572595720283 15.706748534903388
101 1 1 28.71047581978033 8.966366783792093 14.216922805729135
102 1 1 0.6888211642201693 8.502687798484342 14.419200365396636
103 1 1 2.4803000664783657 7.505173887602172 14.832909166286814
104 1 1 2.279134735015676 7.011589339115676 16.8200169239445
105 1 1 2.8633686140567502 5.035431000074596 16.56528663791483
106 1 1 4.38477846472569 4.176326015433719 15.404877040106363
107 1 1 6.163243438926825 3.2070583866891047 15.095319323447113
108 1 1 7.265537864267904 3.5081330175144636 13.35502225608283
109 1 1 8.061679360806648 5.3806407014769535 13.035199499054983
110 1 1 10.058519475461143 5.632954617433598 12.616423872852575
111 1 1 10.66264713651293 7.421087318332082 11.732807508290444
112 1 1 9.29604535771795 8.666112899784345 12.788094432704698
113 1 1 10.468819965511127 7.816772631891199 14.331985081170334
114 1 1 12.080896020242058 8.703444249987987 13.423986285571745
115 1 1 12.328217229204267 10.41602790877892 12.296334509066291
116 1 1 11.338823549608005 12.180894019395591 12.724757851033958
117 1 1 9.336448161386949 12.499618535716587 12.358592695714938
118 1 1 8.602485231502612 14.076276586010664 11.213335376466672
119 1 1 9.575633577708691 15.872470572320907 11.428211656150681
120 1 1 11.160126982274258 17.063532474361896 10.969322976365634
121 1 1 11.769338281628078 18.66374487721 12.08317676227657
122 1 1 12.854019379521237 18.304371632492646 13.79289221141148
123 1 1 13.024762665044523 16.441057020880216 14.651855537184503
124 1 1 12.38626598140299 15.141804026505808 16.129986078089473
125 1 1 11.82723751568769 14.116819050213874 17.863555627874803
126 1 1 11.657693621969775 13.028612374693147 19.624154367182545
127 1 1 11.49002172773851 11.024775280705606 20.129954653278407
128 1 1 12.046106795469635 9.54413541602483 18.784336597898953
129 1 1 10.501706442055696 8.247813051887787 19.376948570106787
130 1 1 8.734199854543272 9.187783360194024 18.77498076641588
131 1 1 7.058914351262532 8.577901097320748 17.709681012228874
132 1 1 8.341351647990642 9.048833856242203 16.13975171785486
133 1 1 7.011048311121712 9.202330195489823 14.559779057104548
134 1 1 5.463419866811667 9.9509778985451 13.424836094598113
135 1 1 4.049072044834427 9.407139026822298 12.043311353410873
136 1 1 3.2132288185854785 9.704394354513363 10.179419322106217
137 1 1 2.043307270472115 9.9900508652838 8.513497178030065
138 1 1 1.569465066684934 9.246507155154667 6.684763868060691
139 1 1 1.4484895339490589 9.403489108759706 4.650415382913796
140 1 1 2.7622030551698042 9.095546784577598 3.070049307134482
141 1 1 4.596030223155417 8.62428053818721 3.8654652264084057
142 1 1 6.507045684378488 8.882812656522905 3.0905187775358005
143 1 1 5.703279002590639 10.105554170685531 1.6347443020648076
144 1 1 5.281209390643395 10.658246293062986 29.664121394718414
145 1 1 6.378542106805432 9.935349588585636 28.067969574591814
146 1 1 6.067754210884087 10.16474060306746 26.015243436385077
147 1 1 7.724100375759685 10.824533097204666 24.957838072271354
148 1 1 9.376268883356564 11.462817873254215 23.894981177956062
149 1 1 9.103889170773778 12.312189056192242 22.03878827304255
150 1 1 8.961490065539873 11.60109034029422 20.103824451928432
151 1 1 9.870051847658521 11.483959720256706 18.25853116202212
152 1 1 11.013262592139359 11.46493723813194 16.528541391840502
153 1 1 12.937414639251111 10.985892834073427 15.883390728795018
154 1 1 14.94194091769171 10.406836312027444 15.749870319329117
155 1 1 16.76649395091571 9.610403747174798 16.324233322236868
156 1 1 18.367715897481276 10.73654707851299 16.957608833277813
157 1 1 20.42125381968086 10.927993556690446 17.08845379695616
158 1 1 21.840796289082835 12.430525606953127 16.905048076499014
159 1 1 23.675215075313886 11.888682127648153 16.117764421972765
160 1 1 25.41948523964837 12.420905671927047 15.11209955474441
161 1 1 26.871770552555855 12.626315555065045 13.640750847314091
162 1 1 28.384853842471856 12.031061673159561 12.352049137997783
163 1 1 0.12484844135212765 11.603755057523006 11.301834966450036
164 1 1 1.8172395717040606 11.826785334067896 10.095417070639556
165 1 1 3.5879564195033247 12.26760840529564 9.08604540232427
166 1 1 5.315366823439811 11.159677327801958 9.338693696873653
167 1 1 5.827864804006327 9.140893075108801 9.399699169788398
168 1 1 7.661392970739077 9.829922545949193 8.770884275985122
169 1 1 9.407282043389419 10.620815960266242 8.007044570182883
170 1 1 11.444525897262505 10.325801486691386 7.773961966496916
171 1 1 13.395035636374587 9.727648255297261 7.369966550217719
172 1 1 13.180349216602126 9.271648348986007 9.350035556188152
173 1 1 14.501592953676543 9.258243408988722 10.922392454348898
174 1 1 15.836463684026505 7.890635167355526 11.75596202143023
175 1 1 16.23685132272548 5.8545976834997235 11.566198602380826
176 1 1 16.48454379170508 3.8559624824163556 12.055726584061865
177 1 1 16.083961498929995 1.847377454739121 11.730224657804936
178 1 1 15.232849479002116 0.11230567690206582 12.477184218191809
179 1 1 14.679390501035813 29.129345814850655 14.202779244602171
180 1 1 15.262313847176896 0.8323310906577019 15.255250806444913
181 1 1 14.631132290140973 1.7675084190842059 16.986715649760797
182 1 1 12.63688049199912 2.1318479133202906 17.434063725747247
183 1 1 11.850198176332288 4.053657196128712 17.732094184051487
184 1 1 10.070993922699957 3.528277966235647 16.780542112919992
185 1 1 8.422107699130288 4.7663517125395165 16.51156320520549
186 1 1 7.228944667175699 6.145185392897901 15.498763752408104
187 1 1 5.350375391591766 6.2519055419059475 14.606916058147908
188 1 1 5.3286895438257345 5.047969723007463 12.915426906409783
189 1 1 4.5868575433135845 6.420119686001489 11.538370457640896
190 1 1 4.891029519939366 4.737254457624903 10.347084677616378
191 1 1 4.20837746471883 3.1041522607578274 9.296504800226915
192 1 1 4.072901087502324 1.9621432447076026 10.99744388051656
193 1 1 4.3560498474334475 0.18801323861717917 11.984660707489253
194 1 1 5.787448927050862 29.27725412071752 13.153155282116419
195 1 1 6.956771311182493 29.367403053973877 14.886980462267672
196 1 1 8.895712959778237 29.94144054300947 15.449459078837743
197 1 1 10.621247067730252 29.15684310785093 14.5939508156554
198 1 1 11.970501725083091 0.0010782174975110664 13.241731314849853
199 1 1 13.08960991998511 1.5808038349215427 14.030384560292541
