ITEM: TIMESTEP
299
ITEM: NUMBER OF ATOMS
200
ITEM: BOX BOUNDS pp pp pp
0 30.0
0 30.0
0 30.0
ITEM: ATOMS id mol type x y z
0 0 0 17.20434854750646 19.003908239014947 12.321566305243804
1 0 0 16.236201588544503 18.90526295080813 13.814726947281848
2 0 0 17.18721155828351 18.66755183664139 15.305645750334152
3 0 0 16.722892716706944 16.942969485194368 15.123233009404446
4 0 0 17.558375039569675 15.451413073555296 15.684089466061604
5 0 0 17.052764317313354 14.205166936493175 14.513966578383629
6 0 0 16.752674050313868 12.443489371314692 14.650938298682357
7 0 0 18.0181214421722 11.196885983617634 14.609238879502357
8 0 0 18.735581986800547 9.567571235493087 14.652731873002521
9 0 0 20.048688083744093 9.444037108434092 13.451252541410533
10 0 0 21.06164404203668 8.681114170332311 12.175233280013611
11 0 0 21.52896643965394 9.763745178279905 10.81228978256002
12 0 0 22.93585123355403 9.809728248679964 11.913929520726395
13 0 0 23.31166152576234 11.511873641556305 11.489100145937664
14 0 0 22.96577473742999 13.25557123660479 11.63554771991244
15 0 0 21.640292712737768 13.937089134963736 12.576680856559982
16 0 0 19.991596171681618 13.38183546520752 12.996948757582643
17 0 0 18.924622124250217 12.04766859844777 12.489205980104153
18 0 0 17.71695176391365 11.41359038749187 11.354678936580454
19 0 0 17.300618389460062 10.437066343772358 9.917478923063772
20 0 0 16.401582787877572 10.35186512363425 8.362248475016337
21 0 0 15.686591573751121 8.790137362611976 7.787169188119055
22 0 0 14.76182429523224 7.267776124407172 7.4452066554738225
23 0 0 13.78257963612455 5.776428320967567 7.49689169296593
24 0 0 12.47048336710532 4.545750529552457 7.578057815650393
25 0 0 13.16841864897426 2.884582375092414 7.335999062198318
26 0 0 13.481471237035574 2.589841655148544 9.09496599063639
27 0 0 13.911652627018684 4.33600996163489 9.12882716620274
28 0 0 12.898698240518668 4.529830448896783 10.57996370271246
29 0 0 12.99556147632162 5.911157959814492 11.73122250212552
30 0 0 13.647908376564168 5.186173435631435 13.231584226410703
31 0 0 14.328851052132732 6.021705608880979 14.666631053389477
32 0 0 14.4463957907371 7.570363744422562 15.593506290662177
33 0 0 15.246573503056082 7.530008154372986 17.174946758357287
34 0 0 14.272177299501712 7.945600547205011 18.57679941814936
35 0 0 15.461799837057796 8.51876462115225 19.787417596556292
36 0 0 16.958076641398716 8.316658937941696 20.742884978323325
37 0 0 18.240464961998224 9.351940961397645 21.434384730204894
38 0 0 18.152479276266636 8.034205387652108 22.663187271680425
39 0 0 19.65934307544523 7.806566861685256 21.724364200451703
40 0 0 21.133615087516073 7.87877072060028 20.72542239420735
41 0 0 21.836391360899697 8.339726911098614 19.15110688435988
42 0 0 21.747789864671244 9.972580669085392 19.866194193067397
43 0 0 23.39499125701448 10.633928182825727 20.079681009343236
44 0 0 23.556460207892172 12.157426218729022 19.173006978631268
45 0 0 24.38027917832473 13.342575359425584 20.233522327094917
46 0 0 25.97448728874116 14.107987655360347 19.98685465913945
47 0 0 26.270717456123137 15.00484268919031 21.500189641646678
48 0 0 26.36507558427316 16.798459876787522 21.637949982866246
49 0 0 27.31616271924085 16.556714369142178 23.119814700314183
50 0 0 28.98686652860835 17.18804107141408 23.013213600281862
51 0 0 28.063474729259326 18.637518221477094 23.491526121586805
52 0 0 27.90831980959887 19.05248784082461 21.774361517018885
53 0 0 28.926369734545773 20.50526334912118 21.93587430104472
54 0 0 28.778151450368135 21.203577276832377 20.297720491228105
55 0 0 29.394265351588977 20.440830875026865 18.80256027674069
56 0 0 29.508350548555967 21.95805181263835 17.871892854314915
57 0 0 28.201259700048873 23.079312208316413 17.406536893740746
58 0 0 26.973838459013585 23.835444163594182 16.35554143029299
59 0 0 25.356221010557036 23.53268920002209 17.035419300881173
60 0 0 24.8750298634112 25.219437114317866 17.384487837623485
61 0 0 23.62713774249464 26.466125462462 17.692260771716125
62 0 0 23.447091733914604 27.513333543911866 19.131154754314537
63 0 0 23.752464063807004 28.626945726305006 20.49294850842002
64 0 0 24.658718566414358 29.293584463842194 21.877801454507114
65 0 0 26.05389273710876 28.581160322071913 22.738402390885174
66 0 0 27.213735760899556 29.890981042931955 22.372443684702557
67 0 0 27.495088880141996 1.3042923362910765 21.316515249715522
68 0 0 26.948677013767185 2.918588750398383 20.762279506974977
69 0 0 25.76181167745394 4.259589083544704 20.78979156303765
70 0 0 24.566060614519543 4.278060046679488 19.45685074611387
71 0 0 24.74879837921002 5.47607411836737 18.143126024571682
72 0 0 23.578471978891862 6.189091894353643 17.00039530922137
73 0 0 23.70709054978819 7.925505318869414 17.34704981884784
74 0 0 23.515702229831117 9.262847006146217 16.181911067168514
75 0 0 21.967329885583265 10.135868495175334 16.3114857848153
76 0 0 21.810729758573874 10.85381282920081 14.670809283195457
77 0 0 21.64105762645753 11.379618272865608 12.960885070965928
78 0 0 21.059402697752574 12.017823222513165 11.388175104633698
79 0 0 20.58446837874465 12.898241549242947 9.910742910258278
80 0 0 20.837500388343305 14.592758819151507 10.408953826346925
81 0 0 20.38620501971172 15.71774914996242 11.71171027309927
82 0 0 20.226431331851565 17.497882975910684 11.647950560020721
83 0 0 19.775278079927336 19.06819835150415 12.412930564010926
84 0 0 19.726615256929858 20.126819908731843 13.867183430992919
85 0 0 21.17917055654939 20.61673128996317 14.79997864485918
86 0 0 22.75961105666929 19.9075152752987 15.248059902454727
87 0 0 23.166419829765104 20.835549212543125 16.728261589022658
88 0 0 22.892007427178278 22.499980111303515 17.30993089368792
89 0 0 23.00963566231538 23.916913183296927 18.378370728453476
90 0 0 23.96316043195195 24.630688999929923 19.706468386127565
91 0 0 24.881938004443185 25.489535043693568 20.979972627252078
92 0 0 25.65956417790294 26.9845238484143 20.37001106744749
93 0 0 26.35578221547382 28.266894454884586 19.326676923201067
94 0 0 25.528736313171912 29.86223022297581 19.333155659169197
95 0 0 25.050746406974824 1.264411905292978 20.349133819922784
96 0 0 24.858631452498198 1.7947131239196021 22.045659076654523
97 0 0 24.393659063341847 3.4327643225017512 22.5832893514594
98 0 0 23.07047243196997 4.092830135549611 23.591177572934168
99 0 0 23.35986108183343 5.597146155640541 24.51387164290614
100 1 1 26.90395089635738 8.854246314705252 16.47962206973958
101 1 1 28.242753150466537 8.383476625949958 14.921566815357817
102 1 1 0.08851013530762618 7.663670304428597 14.392178495882625
103 1 1 1.734011063670116 7.1917687145215154 15.5058998616359
104 1 1 1.9270371377474504 6.48611326228448 17.462419644746415
105 1 1 3.291602687710514 5.175067673133353 16.529986314856522
106 1 1 3.942302849795497 3.673327603620467 15.250861621951088
107 1 1 5.685813374667863 2.5586462475663327 15.357090738610363
108 1 1 6.802326939486892 3.9575507787632263 14.362684997190131
109 1 1 7.465227107885591 5.005247745199862 12.689646835904242
110 1 1 9.544225852566196 5.346835375046826 12.613558803887084
111 1 1 10.674935554063072 6.916668020344526 11.857390511306061
112 1 1 9.480765579051969 8.221959352053698 12.983920149266538
113 1 1 10.698409559057627 8.360316673736566 14.719495956532452
114 1 1 12.230410082079404 9.524234019745178 13.92951947572699
115 1 1 13.217872950100574 11.138328753079906 13.132068323277982
116 1 1 12.100986776912547 12.7787738852684 12.425973377347171
117 1 1 10.173067736997428 13.079215464026348 11.697964311267674
118 1 1 10.215010642307275 14.945708831863094 10.810994193011489
119 1 1 11.194151362025082 15.923394539475344 12.287770050812595
120 1 1 11.762987936364974 17.675100066199622 11.34626367775698
121 1 1 12.134443546217382 19.285703734740704 12.591979407662388
122 1 1 12.777162078001075 18.02485745200108 14.121230226862053
123 1 1 13.01714673304626 17.173205693707963 15.982008095819944
124 1 1 12.32489615438796 15.226661472852864 15.835559892937304
125 1 1 11.564531473241084 14.222929352768633 17.51344281345948
126 1 1 11.530125626595439 12.929454944253537 19.14126393160576
127 1 1 12.07494401651417 10.981035938961085 19.485314400092676
128 1 1 12.000564894617192 9.093272745667383 18.641802201301573
129 1 1 10.415051663300419 8.121855370153172 19.489206949782684
130 1 1 8.487191685647216 8.582336919546877 18.86028562404829
131 1 1 8.425432053685338 7.821298095429001 16.90839607591388
132 1 1 7.400005992072461 8.370599192486642 15.17722093660097
133 1 1 7.700237997124482 9.986532106022768 13.859268915290231
134 1 1 5.783989960069864 10.011630240852734 13.121618261579211
135 1 1 4.057910290572302 9.885310565665382 12.022440512722985
136 1 1 2.84679825884644 9.193508830438308 10.516702660801942
137 1 1 2.459724859975034 8.687068082831265 8.55392649955422
138 1 1 1.720591204814104 9.063914282433473 6.698748249668785
139 1 1 1.664648076738285 8.597580918542619 4.7083178776983186
140 1 1 3.2185800019602113 8.511603332091621 3.3478027826095755
141 1 1 5.137048684804137 8.90121381720544 4.003665832343197
142 1 1 6.721626752912581 9.624832183776311 2.883637838783756
143 1 1 5.287485429932896 10.045404113535966 1.4592333290937585
144 1 1 6.012991640280025 10.546669343467093 29.59586737070304
145 1 1 6.446033456678451 9.614488328076654 27.816288822966623
146 1 1 6.218462270564979 9.762146367146604 25.757414923246646
147 1 1 8.135202683507668 10.177810664171774 25.09337806453683
148 1 1 8.815225485675517 11.585470880493432 23.732750325413594
149 1 1 8.570659317829879 11.120120654227106 21.731476396752115
150 1 1 9.159757955291399 11.46974822607958 19.784856265314946
151 1 1 10.085732533335618 11.211707598602116 17.927321467669213
152 1 1 11.258778471442927 10.949684565827269 16.19595298594663
153 1 1 13.191803329308781 10.282288330883079 16.685067298612662
154 1 1 15.254874585302364 10.218252511450864 16.36342152164562
155 1 1 17.168959359614473 9.582647313812156 16.900399942720686
156 1 1 18.405363731938174 11.229933543174525 17.13443716738315
157 1 1 20.29081694111849 11.643987505178702 17.86583551640884
158 1 1 21.91275805962466 12.781279637799955 17.27979394292365
159 1 1 23.832382021556732 13.003777839382817 16.597562149228906
160 1 1 25.563076708174886 12.695155241539918 15.546095420709367
161 1 1 26.691732980211434 12.338478162026739 13.867702827002319
162 1 1 28.043774958357726 11.902958419030757 12.364592089136003
163 1 1 29.284106880006455 11.527376621294618 10.778329025702444
164 1 1 0.938758917748237 12.185699360440735 9.78578273684949
165 1 1 2.893058487183852 11.58172718648277 9.906748539771534
166 1 1 4.940218635170727 11.295371297099134 9.968101749268845
167 1 1 5.281046328160841 9.285493212079583 9.695271642095769
168 1 1 6.9076690418384015 9.220663829475068 8.421844775738114
169 1 1 8.86666830489793 9.756983298766274 8.040960191462029
170 1 1 10.847582018116857 10.361226778100493 7.7708155890529955
171 1 1 12.865146459558787 10.013141636356718 7.3978483531040435
172 1 1 13.77131291296712 8.894326755161567 8.871467909516168
173 1 1 14.120506875155957 9.657875986532167 10.735655343843412
174 1 1 15.205063264431873 8.46687165092057 12.035246438302279
175 1 1 16.39442612368307 6.76335889154592 11.892697993997688
176 1 1 17.00879418275204 4.855257311024518 12.341539572428223
177 1 1 15.958390796431173 3.105069484754451 12.517329103555053
178 1 1 16.050181887669986 1.3309095738014831 11.4615817324408
179 1 1 14.882561622850806 29.953257656801835 12.460292209921624
180 1 1 15.37086892968714 29.7401568978821 14.429116137013844
181 1 1 14.93066554842202 0.8044040016753374 16.138516966913812
182 1 1 13.54295473940422 2.3722341163946457 16.14550372889108
183 1 1 12.131919892318903 2.6560920758667823 17.63335067312798
184 1 1 10.647692125927422 3.5720538023099206 16.537274439269627
185 1 1 8.966051182940873 4.732497983190904 16.133104790254748
186 1 1 7.1424871884509695 5.604480773827594 16.49017462967649
187 1 1 6.092657930428471 6.177767688651758 14.80743510743825
188 1 1 5.038094300782546 6.313598665132594 13.0187781685984
189 1 1 4.570482029396616 6.629587687678778 11.052409175199383
190 1 1 4.93836844118683 5.539317962787105 9.36662987823739
191 1 1 4.349567257720333 3.5808163999514933 9.278550702604198
192 1 1 4.425597080919297 1.5106989223135625 9.194231910271153
193 1 1 4.454631679992448 0.19538669228917716 10.812194617037472
194 1 1 5.0857898552890415 29.502892321882772 12.678083276491892
195 1 1 6.255140633131411 29.33828037342638 14.408908381579332
196 1 1 8.048305013458913 29.56654553470747 15.449796441238883
197 1 1 9.89814850304192 29.28822609442035 14.591042560966384
198 1 1 11.353280712516167 29.422707144266095 13.122034756322076
199 1 1 12.70924800360763 0.2358538752688167 14.504784587245757
