ITEM: TIMESTEP
3
ITEM: NUMBER OF ATOMS
200
ITEM: BOX BOUNDS pp pp pp
0 30.0
0 30.0
0 30.0
ITEM: ATOMS id mol type x y z
0 0 0 17.210847716314117 9.463310313743781 15.253155232017589
1 0 0 15.895840430942577 11.150242936366846 18.39785950442805
2 0 0 11.312239500858857 9.66100099567846 17.17679189447812
3 0 0 14.1055706651694 16.33801963165659 21.121902002679676
4 0 0 8.353623869270281 15.946106565623191 19.065647957471356
5 0 0 27.861267740172018 14.60130269248311 25.21299843888997
6 0 0 20.908158523130236 10.541820746216388 20.484906902699844
7 0 0 28.780439593593822 6.540452980126714 22.58412984186897
8 0 0 5.880422558019093 11.523309425139624 1.4994068571496522
9 0 0 9.97476688714816 15.555559585020255 8.408064671666237
10 0 0 13.20129833833117 16.719293325094135 12.716552007007934
11 0 0 15.32651929632452 19.188260907566367 11.356052696014206
12 0 0 13.926294352724137 18.092804309972028 13.723867095969974
13 0 0 10.765646950366031 15.730613282515922 11.63129739426455
14 0 0 2.844105256932944 7.447100075384354 11.69103073533903
15 0 0 23.55746980302759 8.521849082612784 15.06826656800754
16 0 0 18.54491717559032 16.276551517837515 13.13729076844247
17 0 0 20.05272959795437 19.502540218043666 19.94410435906361
18 0 0 20.547716439256718 20.088144271657658 28.49185371177697
19 0 0 0.4601094078057193 23.281198969978874 26.9599237764426
20 0 0 10.184108624836432 16.337774440180297 17.471831102356685
21 0 0 18.162638890371536 19.48917632120311 13.033666468200122
22 0 0 14.744696578559864 18.843152398604882 20.74844188932604
23 0 0 17.574078693431478 27.219087383450365 26.882353671169696
24 0 0 15.871971260416146 5.220428832987213 22.35028102630438
25 0 0 5.319001392063172 0.17017482191324027 25.983572611605734
26 0 0 23.61175224816707 21.47287784571009 3.20602364421589
27 0 0 14.194629946085335 16.520010172205744 10.955133638720152
28 0 0 10.621916491706665 17.734907754880954 17.447359353181874
29 0 0 13.625756227283231 19.30113494622618 11.719522934997766
30 0 0 18.26491605809874 22.980159885926287 6.474880477329173
31 0 0 12.586945420255843 20.87333268899279 12.500582701155789
32 0 0 13.610942151207086 15.095647882202739 11.258474279618275
33 0 0 14.18724026735489 20.353418239328626 5.337554610971033
34 0 0 9.709838752710887 28.599471977714344 11.699936335498835
35 0 0 12.357965768967054 9.580066958596486 14.362822783920425
36 0 0 17.730738259817926 15.098581834035027 14.1838081663119
37 0 0 18.313561444740547 21.730361467806123 18.834201554815404
38 0 0 13.956574707971516 29.164249943963306 19.004083171343705
39 0 0 9.086486902418358 24.734145366648246 12.370689407896219
40 0 0 12.885144800496091 20.92509233812748 10.402378125439878
41 0 0 14.858308562707972 16.22155037578282 12.291993943638666
42 0 0 9.469367203225168 11.922021927171706 13.734522946379128
43 0 0 9.448999746166747 10.652956067324004 14.873210563508376
44 0 0 12.467592968578161 16.881845190927148 15.31747228359552
45 0 0 14.547931135530808 12.239843462937745 16.60246434864959
46 0 0 21.879746885812658 9.908205369589696 16.241271278320887
47 0 0 17.912164760031153 13.014960490031068 16.14173109955784
48 0 0 16.231617907499455 17.60170031818465 13.052078659928531
49 0 0 19.347778482167314 17.590089180644902 13.767006145007118
50 0 0 19.559048320566337 21.025066885938262 17.343789697425738
51 0 0 18.228393099002677 17.780677488582867 15.97280236352895
52 0 0 13.899549183115836 15.182128345330316 15.09606960066229
53 0 0 15.589235514256119 13.487061470307829 16.625498513976364
54 0 0 17.019459217048453 16.558766359071264 13.884981166832238
55 0 0 14.310810104432225 17.671721096488085 15.428729670398225
56 0 0 18.22338700515703 20.57687185495975 14.014990916766305
57 0 0 16.379918501982097 15.494887685378021 14.660261831612345
58 0 0 17.87251307995233 14.040709975183901 10.756339428341573
59 0 0 17.337902468991917 11.53832149225556 15.670281235217193
60 0 0 16.24638790395435 14.355457619000237 13.540221679969196
61 0 0 11.097181794307323 12.700117603040614 14.852239434197395
62 0 0 11.984177525358977 12.557909975650334 11.34216916156371
63 0 0 16.03351093196309 7.192631405688785 2.938739639013038
64 0 0 16.717309465469725 11.069402417139226 21.78199457043404
65 0 0 18.877036207009837 10.764047979805921 13.295943985079957
66 0 0 13.981924239648942 8.928199822171734 9.848459322755886
67 0 0 16.386176070377537 16.685941976885214 15.531235687930735
68 0 0 16.112722403750766 16.703001603608655 10.416520786126004
69 0 0 16.044830368659465 15.312151656932668 11.727324113138739
70 0 0 17.68006948776162 16.020838249354387 15.913049065451489
71 0 0 18.202808732514395 20.550809079691298 22.028625519133023
72 0 0 16.12311470294983 20.560815466326716 26.16456887530537
73 0 0 9.893866084658471 25.012383765060356 2.386445913601415
74 0 0 12.366680271086453 29.032067562487647 7.104146904637375
75 0 0 16.113848041682406 29.058774208651094 5.534508159360713
76 0 0 13.07164447310036 26.517527808546763 28.34300196022678
77 0 0 14.977324120982225 3.2373808766093575 22.489505179891694
78 0 0 15.528846730184904 6.448761684673726 0.5112349172018631
79 0 0 18.314071948396908 12.081749677942117 8.98012879909046
80 0 0 13.702184016525065 8.79748400647297 6.810228350243381
81 0 0 17.067164629650968 14.317898919571 11.902152695562368
82 0 0 16.465483693561183 23.7487374115525 6.093004263723732
83 0 0 13.084974020025163 29.936258784329702 28.22623988315339
84 0 0 11.122931113133392 25.65571777638755 20.88222060121565
85 0 0 9.577260153008957 19.97132612075306 19.344175038457607
86 0 0 12.222981707510897 19.172068614433794 11.014188027722609
87 0 0 13.586561567709886 15.380760055529288 2.1278590346079045
88 0 0 15.76678223829269 16.837895805480354 0.22523583594773033
89 0 0 20.960490816413422 19.23013401464697 25.205272149495727
90 0 0 0.19098173198284005 15.724537967471157 0.6615156853140708
91 0 0 1.4240832969324102 9.628529442004076 29.28740395838135
92 0 0 24.461761859558766 10.303064840083984 23.16754019130961
93 0 0 27.143901426711757 11.644690365559939 17.22722805964278
94 0 0 5.024786628809074 15.477002054641941 14.493223963797917
95 0 0 8.472498150598584 16.73722704435837 14.471407783019615
96 0 0 10.74107485632982 13.557726750036842 20.27987712410412
97 0 0 10.236721614609165 12.899515499029905 18.489273257110206
98 0 0 9.234173723595902 13.346546242078954 16.288833131609508
99 0 0 11.350698938820614 22.21173250559075 19.89682688480022
100 1 1 11.649949214250213 16.270709046198725 18.459765947849668
101 1 1 14.412736259441951 11.879545071733936 19.839590062767336
102 1 1 15.702638024374044 15.212857205633618 16.408825892874848
103 1 1 11.120045014110309 11.567242738895338 13.580545751937336
104 1 1 14.524875316576162 20.350755993077108 12.600334203243131
105 1 1 17.88379721404577 24.73142295174102 3.6186400757745365
106 1 1 1.264682977781106 2.198956594950132 22.677647109909678
107 1 1 9.457743474904708 15.855083634119385 15.41170795957318
108 1 1 18.464796274544614 20.07998243063992 16.53070263580238
109 1 1 18.14541865722745 17.595047180120634 5.7303055714472
110 1 1 10.230075932962135 10.1585241285831 28.047968186715167
111 1 1 1.8800752846690865 3.851520883122955 7.668165818440683
112 1 1 13.162672245494933 24.001205289470125 16.66892188386584
113 1 1 2.171920644868374 5.555383868066551 8.399057893996751
114 1 1 7.602192340891151 8.750316265438428 25.099130168351547
115 1 1 18.81399956417373 9.934107142907406 1.6842247258669198
116 1 1 9.051190579181915 10.224853120794048 1.7610733954207913
117 1 1 17.72884399431142 18.063472120604196 13.441885157386848
118 1 1 15.857592821831078 7.615880505874943 17.555157545285777
119 1 1 17.606558231087305 16.082936542361143 11.051764819778345
120 1 1 19.018385434719185 16.12660344754301 14.822761052424932
121 1 1 11.930812440090083 16.872638119475454 16.83737950238158
122 1 1 2.59122150119519 24.3267409029333 25.03575297318593
123 1 1 11.769791217726846 14.514278016268438 18.741223738059688
124 1 1 24.128333574031664 6.12699407924258 6.825348932461688
125 1 1 19.98584071282581 18.62717701853771 17.47468546948384
126 1 1 22.440404897728982 22.90816600310771 25.155601501136392
127 1 1 14.188593943696528 16.43001342928346 19.518943329376945
128 1 1 10.113417495809673 5.782022018809166 19.297055865671872
129 1 1 20.413025194408746 13.60539869084101 14.723111820060243
130 1 1 13.69424026977594 19.112182611556115 19.207013757873437
131 1 1 14.59106912644869 17.845781276834934 12.071916684564192
132 1 1 14.882385840403513 14.94242924950717 20.229420410459873
133 1 1 27.29609000258666 13.33492076817473 14.850438525383112
134 1 1 17.94080801091681 11.684136039933131 14.196527654256634
135 1 1 15.125164109837069 9.618874571312764 18.87336947578052
136 1 1 15.88583772275258 14.35151359428453 18.238006951924874
137 1 1 14.754150936662244 15.160048003179876 13.568654932141213
138 1 1 12.72445897313697 4.835519956696913 17.377205095412048
139 1 1 9.355347588150758 11.393265283680186 10.190500256850283
140 1 1 12.07711125159242 13.264552016682488 13.69275609854052
141 1 1 17.362472206398543 16.570139390677294 20.13161813584229
142 1 1 11.468296645168177 19.261982112366944 17.983291686879824
143 1 1 13.480094810464566 14.939644864104599 18.32673699837034
144 1 1 10.904584754939696 19.39199255407627 9.967511970649117
145 1 1 10.928717385828126 12.906583440117139 28.176071932126288
146 1 1 16.086654067665492 10.563121765327256 14.208596374982342
147 1 1 14.809988241034134 8.568406223467434 12.258912276981937
148 1 1 11.964512646970558 14.689338920594453 10.97140949796253
149 1 1 16.81087637090302 9.427283311921075 18.213814073736557
150 1 1 15.349030158458868 16.941400520487537 14.394538389500086
151 1 1 3.479476211712635 16.448827225183862 23.13777409545938
152 1 1 8.736369408126736 14.422676374890363 14.813008419078367
153 1 1 15.526677712213917 20.11910473029218 20.450217211699442
154 1 1 13.439797884443248 12.73498959799552 10.696227136549211
155 1 1 10.449342440459725 13.78955905150731 12.079519848236759
156 1 1 20.97016072380952 14.474615432732904 24.576397034682397
157 1 1 17.22840167646017 12.596164045458377 11.4777207660285
158 1 1 11.978612234428741 29.06406383156571 29.22262070431633
159 1 1 20.589160831408673 28.83701998179568 9.507565934247468
160 1 1 1.0160756288347637 8.477104477929393 11.957609845794865
161 1 1 12.76459508741714 19.550299858727595 13.800696156760322
162 1 1 13.337991520223854 23.546024944343873 21.369178542711445
163 1 1 12.251029584653327 17.928260660450093 14.027710273986077
164 1 1 17.042178259112635 14.951433696714771 19.40329503646441
165 1 1 10.676885566706812 17.25474210883025 15.62261896087998
166 1 1 19.18295893095222 13.368957320939199 13.382034404207717
167 1 1 25.95503110920767 15.821465658162342 9.79782756657233
168 1 1 14.13203642004082 9.687233855300288 14.098649008550327
169 1 1 14.562534503551879 13.2721594381183 18.736326248467236
170 1 1 12.32570583033376 9.969249399184768 10.511692784393587
171 1 1 14.243360264727075 15.105876820081509 9.4539628456232
172 1 1 13.146218025621815 22.48585419169725 11.638276340688561
173 1 1 6.047879524583839 21.86386862359745 21.443079701622764
174 1 1 24.56085820754524 17.254948188867825 19.930597663065743
175 1 1 17.250070958942274 15.975820981545073 17.55145923291152
176 1 1 11.170611775480607 14.201254526849752 15.675145747539826
177 1 1 13.556898200892524 8.061154785269657 15.245624882481884
178 1 1 15.31688147213723 12.182532535518614 14.30762764604716
179 1 1 18.66300366985938 9.280486923113157 11.372709607265053
180 1 1 19.80797718966719 28.901916301796334 20.400727132537586
181 1 1 12.880956597572787 18.13036572545164 17.958144921205555
182 1 1 11.35394230755663 14.710395491852678 22.348443386535756
183 1 1 15.274513650161495 19.048025864859884 14.55713658896174
184 1 1 15.260384444183908 19.144773318435192 16.41428073735668
185 1 1 25.49193506165901 24.736705577624345 5.21225365900995
186 1 1 8.68047204949425 18.371421119363184 17.986108657129893
187 1 1 10.60241845448048 21.138554702318256 19.05349643460932
188 1 1 16.286443464278022 20.842292213499547 14.50999395091366
189 1 1 5.011420148745151 2.6760351033998933 6.464547571094929
190 1 1 15.516478265618698 9.147131182790465 16.622875819697033
191 1 1 14.01371742159653 13.261767056651069 15.203741727195624
192 1 1 10.204420741707136 12.865016505802014 8.944411652189165
193 1 1 15.276917898663681 13.402822786311793 9.476160693343688
194 1 1 13.52929983841062 17.983147346547685 8.874750682906216
195 1 1 9.627039712875236 14.796983305497896 16.686097134267005
196 1 1 13.08504046073594 19.135435942122978 16.480013509602063
197 1 1 12.938311506865748 12.845516430265775 18.360000957684836
198 1 1 18.915663916876863 16.194292116245386 17.84707900486915
199 1 1 9.43096465493006 15.719015365746165 10.757504023675457
