ITEM: TIMESTEP
31
ITEM: NUMBER OF ATOMS
200
ITEM: BOX BOUNDS pp pp pp
0 30.0
0 30.0
0 30.0
ITEM: ATOMS id mol type x y z
0 0 0 12.891889910092434 9.333733855804809 17.40572891550088
1 0 0 11.448480672468712 10.315684048673766 18.175954773670725
2 0 0 9.897302233312711 11.105501593982135 19.2571287371504
3 0 0 8.287318313803858 11.721929916539779 20.61054903982027
4 0 0 6.78570209202883 12.18141477141693 22.281984574215844
5 0 0 5.65465524393401 12.531393537204641 24.32505568706937
6 0 0 5.137477782982191 12.85553488937543 26.67802282825693
7 0 0 5.25066049297148 13.228223516479243 29.16285003958393
8 0 0 5.782366970861134 13.67280723164382 1.6533491665258422
9 0 0 6.442945878393079 14.161879678282737 4.111126586596837
10 0 0 6.927946124867144 14.63280481969347 6.536052076502984
11 0 0 6.901959962743145 14.99462998788301 8.90394609188172
12 0 0 6.102343366336468 15.160959455686958 11.043807752452384
13 0 0 4.650832874358613 15.167015582211915 12.747837324381948
14 0 0 2.9233714915222127 15.16794700556368 14.093535748791131
15 0 0 1.2347888558940097 15.32937972264328 15.322337838624907
16 0 0 29.96007109802061 15.883262285044866 16.72678481119729
17 0 0 0.08341849233268067 17.011481354447604 18.282814004121427
18 0 0 1.4303732530148514 18.096160440060306 19.285764945863324
19 0 0 3.122473306841055 19.097799149822936 20.052295525392648
20 0 0 4.7937722378513 20.14607255319639 20.941318079684606
21 0 0 5.9654739883561 21.31106555077723 22.34172627844278
22 0 0 5.889316865634945 22.35844651037848 24.357051876908127
23 0 0 4.607767475284122 22.989043028072366 26.531332403586813
24 0 0 2.569064380665884 23.26657891292087 28.735100277107236
25 0 0 0.05083375253964006 23.28529612846697 0.945835473926516
26 0 0 27.26630479195239 23.13197594994976 3.1072643419719035
27 0 0 24.401548351637647 22.911210652854226 5.137888457145123
28 0 0 21.60835411222603 22.76963840332547 6.957943134940254
29 0 0 19.003170378326736 22.942576820170874 8.513844211139487
30 0 0 16.74417596574923 23.828204898978314 9.780929538130854
31 0 0 15.237504148205335 25.787579269279732 10.708614698772791
32 0 0 14.646417616259484 28.512295083705006 11.346484979312958
33 0 0 14.625814303992062 1.694022051814662 11.856257746599857
34 0 0 14.885719436273078 5.220002709463875 12.295178685353683
35 0 0 15.23015383336999 9.003065311647978 12.5956443855005
36 0 0 15.470118072634262 13.810293113786184 13.198166047649654
37 0 0 16.313286553170485 18.118933938599355 14.176303483715895
38 0 0 15.055300253022216 19.49960137697237 14.234684173822908
39 0 0 13.204877780509635 19.588520814292004 13.98391929302631
40 0 0 11.610873562680718 18.73118100585316 13.241188299618525
41 0 0 10.430370342519304 17.05335282373036 13.018455379978855
42 0 0 10.55567138395441 14.779618745141383 13.40678865337969
43 0 0 10.949214717837231 13.141263950208392 14.768964111195611
44 0 0 13.587905248015621 12.116849859356197 15.875586974228298
45 0 0 16.18897850858632 12.801440154267102 14.188070703346893
46 0 0 16.375043746202465 11.03572696643062 15.835311440156328
47 0 0 16.601410892829623 13.739708120913116 15.407037470507522
48 0 0 17.22880582658655 15.649525322076773 13.284392818729392
49 0 0 18.672946772954905 17.01396192840007 13.716332557265062
50 0 0 18.10065353170685 18.224588443669692 15.012464993216446
51 0 0 16.86355293645172 17.788263919217126 16.339732285549903
52 0 0 13.510266489333125 14.827955035550652 15.86405439166118
53 0 0 14.55365061090304 14.01880694548447 14.623503786966822
54 0 0 16.140936367099165 14.938600349668214 14.37040210964386
55 0 0 15.990585911894634 16.95447044592732 15.409255686944558
56 0 0 17.098319722591924 17.286184987603697 12.913123392494034
57 0 0 18.173145676596903 15.894683166424496 11.779809205772356
58 0 0 18.13005163438943 14.016246302271714 11.051798950648427
59 0 0 17.515315677806537 12.59069187988086 9.657023520093645
60 0 0 16.682849298097064 12.041532107793872 7.512332031829629
61 0 0 16.301047383260155 11.811440979776137 4.780192865058608
62 0 0 16.243263837682363 11.732570525668928 1.582004927476365
63 0 0 16.328882626293915 11.800767967220343 27.966128286067164
64 0 0 16.649777632987753 11.951217820372037 24.06024053930124
65 0 0 17.217524490000706 12.087525370192266 19.96262720202782
66 0 0 17.5099578126395 12.157475588163718 15.598975461435257
67 0 0 16.5404770133954 12.488317828860716 12.613494372994898
68 0 0 16.093067627886683 14.9405437529786 12.129564609137859
69 0 0 15.831085159063747 16.705860489990965 13.894377130695572
70 0 0 16.09538264796487 18.470546647596997 17.941832466907318
71 0 0 15.905069028922467 20.215732742134747 20.753159206768494
72 0 0 15.512992987683964 22.04646371086383 23.399070233360654
73 0 0 15.189550433781536 24.04874612935046 25.80367270816392
74 0 0 14.96835364846327 26.280772939203512 27.851416535622686
75 0 0 14.876932796877757 28.749688336380146 29.459590973113038
76 0 0 14.901413401579331 1.4033389518146873 0.6171259520815443
77 0 0 14.978066275114742 4.174585243519309 1.3648697967559444
78 0 0 15.020940075052478 7.014723427518616 1.7033151199541234
79 0 0 14.950125804811108 9.868128737726034 1.5286634085494053
80 0 0 14.72063077165909 12.624480709588404 0.6803215046788258
81 0 0 14.500036425807771 15.0549190151724 29.049572923514216
82 0 0 14.27163020207538 17.027090367029707 26.644139272077776
83 0 0 14.116376993140772 18.612632621942655 23.69314464160526
84 0 0 14.067796695887 20.04420813460783 20.467133258111364
85 0 0 14.306472019487304 20.10140721725515 16.428311801452267
86 0 0 15.725077800163632 19.112641454742903 12.509703035338049
87 0 0 17.382372007437645 18.074345458371983 8.863949715933055
88 0 0 19.264531243834785 17.195515269976607 5.404505783435481
89 0 0 21.346358815080748 16.356075273903002 2.2298893105068363
90 0 0 23.55241591887799 15.581741505354342 29.363514421042584
91 0 0 25.8001256304082 14.922849211164204 26.804151390927643
92 0 0 28.02771420282812 14.425640781472225 24.5546044404917
93 0 0 0.20847605631315944 14.114072136949316 22.642198771040697
94 0 0 2.3485161999968445 13.980214099435566 21.128358591782618
95 0 0 4.467138586243145 13.986108935874793 20.10302170345549
96 0 0 6.548045818235057 14.092416546266724 19.65676127074609
97 0 0 8.50551288970077 14.349509912018599 19.8022754174444
98 0 0 10.143700932556767 15.171547572395365 20.30871860361033
99 0 0 11.012960637305069 16.7822803607383 20.126775847563
100 1 1 12.374398747038082 15.502025437242244 19.442027425336825
101 1 1 13.65686928556268 13.731885291105712 19.686902860447347
102 1 1 14.747198036487202 13.92891364280337 16.49787154545668
103 1 1 13.725480310254765 14.24868467377923 12.589174564524143
104 1 1 17.085769588959522 20.171190537965572 8.339550252295417
105 1 1 22.621247137451803 26.829359027510577 1.838153875929256
106 1 1 0.08706037765789515 4.4041454031437315 24.37176036043803
107 1 1 7.559267119058345 11.713866967682215 17.67429770599417
108 1 1 13.582800469555814 16.179955328549056 12.118928083512325
109 1 1 13.698905215383 14.183410306083486 7.806855856951328
110 1 1 10.959445263147712 9.555555104847674 5.7871647557383445
111 1 1 8.71086466675392 4.479462695405599 7.343437495118116
112 1 1 7.8428435428024255 2.3634321522153154 8.911082603147456
113 1 1 7.330639928793341 5.144923131200176 6.050391394573845
114 1 1 9.504801423900172 7.528121396073627 2.711961806165522
115 1 1 12.64253032362099 9.701190294354765 2.563760563929537
116 1 1 13.815997060506998 11.71580299752698 5.770432397246677
117 1 1 15.50281807950853 12.729157624692181 10.186369369063781
118 1 1 16.702974330257245 11.196355629175681 14.05838447008549
119 1 1 17.34269400583603 13.873561633520799 13.22372514057674
120 1 1 17.33422664410913 16.217638812161923 14.95764526877466
121 1 1 10.904798776741153 17.595193937558058 17.45185920113533
122 1 1 9.75054471432038 17.987387392284738 19.207437250477163
123 1 1 12.429703358685044 14.976384964724378 17.249029497472144
124 1 1 18.304516926195944 13.698427614250205 15.162790109120898
125 1 1 19.937968960329464 15.763169265411229 17.285706925505345
126 1 1 18.769461371607697 17.45238981600638 20.06223121424676
127 1 1 16.197711728157444 15.389606028524298 20.293143596691408
128 1 1 15.474647633902958 12.699623906634242 19.374881734562614
129 1 1 17.650886752161185 14.202665439439558 17.16035396074864
130 1 1 15.60865607601799 16.884229274132704 17.1812533771239
131 1 1 14.623525076699503 17.83014230956567 15.471360826433472
132 1 1 16.02842095366202 14.554255191327792 17.991954602039872
133 1 1 19.622457623484845 13.593895684264023 16.7522237524635
134 1 1 19.010077141030578 11.583006818178593 16.378898805542438
135 1 1 16.681257251346114 10.769742135212084 17.838251012247152
136 1 1 14.649787304859494 12.055431518225372 17.475159548263047
137 1 1 13.97987915463153 12.183137017230495 14.143648232921013
138 1 1 12.345494443225599 9.133205476521283 14.619069744824564
139 1 1 10.946812977384896 11.258548291002686 13.697694860664837
140 1 1 12.627281430181654 13.37402491592354 15.254052749157642
141 1 1 14.040724579344827 16.43974603248802 18.761140690474722
142 1 1 12.422556654146444 18.588863321269866 18.041653025638336
143 1 1 12.525289701761386 17.46719017988941 14.35690363928137
144 1 1 12.182500091963401 15.772213063957416 6.901808294346873
145 1 1 12.76381570192653 13.412690174090725 27.90306862285541
146 1 1 13.836744416523773 10.945204309989306 19.367155051994978
147 1 1 14.702174159624327 10.448354327109639 13.49882133942284
148 1 1 14.784632767662378 12.411867192276993 12.312665181738927
149 1 1 15.233377158759433 12.502088740751311 15.485815527162016
150 1 1 13.998877052267368 15.980866591888244 16.891915488172582
151 1 1 9.396619178612065 16.159424433312257 18.71228695583928
152 1 1 10.72647045770658 15.618111060693947 17.556210237728827
153 1 1 14.014129647426346 17.793812082123917 17.369766613059912
154 1 1 14.7281585803269 15.522675247686536 13.415904066106094
155 1 1 12.967751560975236 14.98804599094997 14.336670677800806
156 1 1 16.420696380835004 12.550271531830683 16.869493437525872
157 1 1 17.060383794480657 8.962073088699317 11.946811895313012
158 1 1 18.41658269097175 5.331218538184073 8.402325313421517
159 1 1 23.671240065177138 5.503324040447424 9.168572835666586
160 1 1 0.6567142506399736 9.869236987455045 11.557390062748137
161 1 1 7.073210573758471 15.398254456981839 14.111393101581307
162 1 1 10.887736825627963 19.14090980100571 16.18788682409453
163 1 1 13.05766127804182 18.687046529113264 16.06189093478582
164 1 1 17.08442909365463 16.14723002578797 17.81169563450498
165 1 1 14.706933391754914 15.86506184356446 15.154821656471551
166 1 1 18.901136368822037 14.893529312808623 13.653667709418963
167 1 1 19.921747966984498 13.093006146202926 12.359902912208268
168 1 1 17.64640412799117 11.093374796114068 12.471954474450058
169 1 1 14.537364711400565 10.667734048968482 15.280672025736521
170 1 1 12.947028529869675 11.870582818174967 12.29647720031642
171 1 1 12.158938716141611 14.996208215082138 11.610084789394863
172 1 1 9.234585909229834 18.666349710866342 14.196266353717357
173 1 1 3.3661285228366293 19.45276340451048 17.06521334295552
174 1 1 25.861229569254423 18.415098950912967 18.001854512717685
175 1 1 18.654767864311005 17.14786796786823 17.1631433550753
176 1 1 13.161305147303452 13.245863488372638 17.219139146143117
177 1 1 12.51557083745467 10.735028584586209 15.97172174945114
178 1 1 15.353163165658035 8.828504781812079 15.008527872558703
179 1 1 16.7505975115266 4.8447877858385135 15.468454934668774
180 1 1 16.403572145057574 28.56540441503933 17.37623671671586
181 1 1 14.760827754414532 22.43309778500015 18.849057795461945
182 1 1 14.081645039751177 18.698535155935524 19.298561003686583
183 1 1 16.027209613488438 19.54201957762073 16.474001925660765
184 1 1 20.08598774199769 20.561481131751332 14.344004374323177
185 1 1 26.632765466367957 21.225516364315144 13.336684709976032
186 1 1 3.6327346071458724 21.20382208259659 14.631553518399182
187 1 1 8.893626784821796 22.32625807971393 15.476793785469221
188 1 1 11.295510938644078 25.82762904538422 13.917675395354683
189 1 1 11.547599344023778 1.2321863539311668 12.6908029924672
190 1 1 12.680046817382255 6.517263639741413 13.358798031939369
191 1 1 12.765501933783225 10.64628955608618 13.674664917874821
192 1 1 12.182028423495652 12.876741596555132 10.89446329813571
193 1 1 13.404192728302863 14.48352249495633 9.916016437530718
194 1 1 12.149017655728874 16.920162215591127 11.07674719554086
195 1 1 10.921818779182695 16.15962645241263 14.72453357123498
196 1 1 12.380969017162347 16.813146231224326 16.768993139259074
197 1 1 14.113598360736564 14.659007812879477 18.141924244197686
198 1 1 16.030212896037135 15.247930726164432 16.181770702603764
199 1 1 12.101285101289116 16.14080164314333 13.17167002549257
