ITEM: TIMESTEP
33
ITEM: NUMBER OF ATOMS
200
ITEM: BOX BOUNDS pp pp pp
0 30.0
0 30.0
0 30.0
ITEM: ATOMS id mol type x y z
0 0 0 12.647398968590084 9.366063045311167 17.71872390009019
1 0 0 11.225589614757464 10.375017086728015 18.391196946701513
2 0 0 9.742326724074472 11.10900144568245 19.473827384207624
3 0 0 8.258612270371787 11.690235163162459 20.839545605657253
4 0 0 6.917992605293629 12.150110247649573 22.52412627970202
5 0 0 5.9265674303734555 12.530112425960755 24.544612819918623
6 0 0 5.448826226416519 12.887607121194424 26.825149431380645
7 0 0 5.480158269000775 13.27024608790442 29.224831311939564
8 0 0 5.854290294033427 13.693339973163278 1.63937129569539
9 0 0 6.333542215702702 14.138213841539745 4.031786118591724
10 0 0 6.662653732615794 14.560818606031974 6.394427177664839
11 0 0 6.569378876335875 14.897341170945072 8.693614997613452
12 0 0 5.8540898342703205 15.091303030358011 10.798654483879918
13 0 0 4.579902708089001 15.161470834558656 12.547340855982611
14 0 0 3.029276150747221 15.219969917409953 13.966309474930682
15 0 0 1.484847117168064 15.415290941203207 15.254244188004742
16 0 0 0.31287038226397157 15.977068404594462 16.68663184291015
17 0 0 0.41980185202527387 17.07221377034825 18.23237351066301
18 0 0 1.6427184213709234 18.149057463476606 19.284166817725318
19 0 0 3.1591679694022776 19.151228456763874 20.138416610151584
20 0 0 4.598724896988304 20.199135300541165 21.162639286552125
21 0 0 5.469041047583106 21.31776981370345 22.69923585337844
22 0 0 5.203555025827589 22.252581546247864 24.698845204978824
23 0 0 3.9534580003056683 22.824087617560497 26.793827213314035
24 0 0 2.0615357975840736 23.09854295172277 28.893804553374768
25 0 0 29.749993277740096 23.16000970937566 0.9781027256926251
26 0 0 27.189450557471428 23.09142454019096 3.0068679754476704
27 0 0 24.52914009119161 22.995693242086578 4.924267668445669
28 0 0 21.897936437251765 23.019439049366085 6.676528174071925
29 0 0 19.413863927264387 23.39078176985969 8.226463218509194
30 0 0 17.2530193434805 24.44491431879176 9.543009279087306
31 0 0 15.747608684934546 26.419513104692186 10.559133207686271
32 0 0 15.032439535234191 29.08923992259843 11.274848601832904
33 0 0 14.863530781109812 2.194299376715354 11.78973044426531
34 0 0 14.990075550090532 5.64053736020243 12.13351550970958
35 0 0 15.26548228608671 9.399323911285672 12.22870594104934
36 0 0 15.677755035430707 13.864105578372577 12.898337866946667
37 0 0 15.340931535707544 17.70859420821902 13.171628884093463
38 0 0 14.871741278208864 19.426497923250555 14.143047880320424
39 0 0 13.05197687428311 19.56363430489298 13.749204015281071
40 0 0 11.354240598498254 18.723350013415057 13.064455023673322
41 0 0 10.367186244452087 16.93006200907002 12.953529608906381
42 0 0 10.41855727916922 14.778841382025098 13.512448439809019
43 0 0 11.007547945470707 13.10516312027535 14.58293836482706
44 0 0 13.369162337906346 12.167509945609995 15.872350682744628
45 0 0 15.656547303949575 12.626809021311278 13.90487822779144
46 0 0 16.369422816040295 11.120970588003829 15.539114890360954
47 0 0 16.44201313130272 13.569666207324211 14.98168293257647
48 0 0 17.319271035730644 15.645098817386987 13.284528991906395
49 0 0 18.652971145491566 16.97005534236965 13.812663526169672
50 0 0 18.16853127020062 18.14342772434985 15.092490660082895
51 0 0 16.944702094800334 17.436092710412012 16.275959507519367
52 0 0 13.858887898397505 14.894277140234866 15.64968882012436
53 0 0 14.806673732002306 14.060821026430588 14.477127837756479
54 0 0 16.139566102295095 15.02299422206331 14.239817251231948
55 0 0 16.459751250799364 17.893622515480846 14.754464879562867
56 0 0 17.248920816119448 17.393158037738136 12.7853608154359
57 0 0 18.019976733849703 15.885001096136387 11.601878007288263
58 0 0 17.93654548364732 14.078281173762782 10.69486359734478
59 0 0 17.444950178477352 12.808557932555107 9.059040848125562
60 0 0 16.827784204330985 12.186854549393958 6.842814595211121
61 0 0 16.495311779865535 11.914766555885048 4.134812580533097
62 0 0 16.43204465027853 11.82312212811648 1.0098770411810756
63 0 0 16.54208735283872 11.853984279500592 27.511341327623573
64 0 0 16.86404581457111 11.922257829202685 23.716775837927386
65 0 0 17.36946454307183 11.96783432751168 19.688009107536057
66 0 0 17.705367304296743 12.154482920432082 15.402800343358653
67 0 0 16.72989173626611 12.591134053587114 12.392017348504778
68 0 0 16.34968113447825 15.068326070033448 12.009589718794972
69 0 0 16.16611554732792 16.623384422212794 13.93989766261424
70 0 0 16.151257796029455 18.482242923328247 17.77624131088415
71 0 0 15.948696457071227 20.270733115449847 20.567025013114392
72 0 0 15.575321715848702 22.134956958932516 23.15364170309354
73 0 0 15.270535506098181 24.162223249355343 25.491458260382842
74 0 0 15.058364998149123 26.39549565145865 27.504393774683216
75 0 0 14.95138910719727 28.841790188220138 29.121820271093267
76 0 0 14.933789489712543 1.464419794463383 0.3077405714756045
77 0 0 14.95590074771396 4.206568634772566 1.0536438652258593
78 0 0 14.949982451862935 7.011121859909476 1.3302950860056122
79 0 0 14.858442423449688 9.805642904766875 1.050878659798081
80 0 0 14.67230257990895 12.470908156761775 0.09955895065340627
81 0 0 14.501526647266642 14.850182762848414 28.444384696663345
82 0 0 14.312777614477382 16.834053138578682 26.147103974673087
83 0 0 14.17883296935126 18.49303301687323 23.428144554938086
84 0 0 14.105204954903597 19.885268019844613 20.4980478047736
85 0 0 14.5851864674163 19.898110906206878 16.482073155969907
86 0 0 15.95259044432905 19.302804442774583 12.509364682453471
87 0 0 17.56519210453021 18.192867862296747 9.041241185779354
88 0 0 19.39384270161729 17.270272865003832 5.707283782278981
89 0 0 21.39050583837512 16.44631168382536 2.5862971087830697
90 0 0 23.503664652778564 15.706966585566626 29.739078076784054
91 0 0 25.672686211894035 15.076035000812846 27.190401369337756
92 0 0 27.846696378051064 14.583304628459645 24.9540901792501
93 0 0 29.99656143048542 14.24791139900456 23.05289560341102
94 0 0 2.1161119659389453 14.070542067768564 21.52973176588783
95 0 0 4.213664689033895 14.035327608645229 20.448751937439454
96 0 0 6.2803582100327615 14.129618414303957 19.888262282392617
97 0 0 8.252322821087299 14.399039811273296 19.902240173731307
98 0 0 9.961001733144615 15.053946226002843 20.42385338359305
99 0 0 10.92810033940829 16.614939022284748 20.441856836667856
100 1 1 12.317571245613767 15.372114938892098 19.515693465790058
101 1 1 13.57928958327876 13.6264265632249 19.69763787445243
102 1 1 14.818942850855098 13.87603011613397 16.57958025898831
103 1 1 14.17189493360692 14.327318541115872 12.239025768762554
104 1 1 17.44174864737353 20.332544921471044 7.975668612715065
105 1 1 22.92235268237862 26.9823033100558 1.669896300527061
106 1 1 0.08534993912116429 4.343463729900715 24.48188125805747
107 1 1 7.3098774465393035 11.280961455708203 17.856196446624445
108 1 1 13.226225717832639 15.827145905579117 11.979044403466528
109 1 1 13.371378873655026 13.831391020957462 8.006833491353248
110 1 1 11.012860599034408 9.510228886235135 6.200996466574825
111 1 1 8.987299497854476 4.90374657333597 7.354721871645229
112 1 1 7.873675192963328 2.7934879744521974 8.5205230200702
113 1 1 7.535298174886979 5.172438878603277 5.902751523325988
114 1 1 9.574560650474222 7.484916727838824 3.0518526407964988
115 1 1 12.468491783237763 9.685911847664963 2.9122276704872867
116 1 1 13.870032078873669 11.61491226997547 5.94279000976874
117 1 1 15.43614628645667 12.465365428203715 10.091903732651673
118 1 1 16.617651570162202 11.229111467938177 13.794920752447714
119 1 1 17.41162769506921 13.788230174255823 13.432698749448262
120 1 1 17.22377231090168 16.10307762357692 15.185002857275943
121 1 1 11.132493632184485 17.558120963089287 17.350308855624075
122 1 1 10.070729037118243 17.887285181391743 19.037179140667284
123 1 1 12.533098441943622 14.887553322949381 17.276074911682258
124 1 1 18.027083859289682 14.067896931133983 15.47942648234937
125 1 1 19.882520147632146 15.540992768074537 17.386972623534167
126 1 1 18.665411073366823 17.12781858270719 19.841863364777787
127 1 1 16.363049080415344 15.367512568228385 20.208382318163153
128 1 1 15.718460935227238 13.00371577940034 19.27631938681319
129 1 1 17.644612871655646 14.260629269749861 17.33631281879018
130 1 1 15.546123117131401 16.897048999737315 17.10272108273924
131 1 1 14.697495164800266 17.826562696944517 15.5682637127897
132 1 1 16.050336191376996 14.678262849853093 18.08813943404887
133 1 1 19.430399717359474 13.553071372557836 16.911933346762304
134 1 1 18.96691375308598 11.515243612052926 16.572167188348672
135 1 1 16.759042000660514 10.815334612291228 17.76901641452708
136 1 1 14.711823368914702 11.751143711352881 17.350768351367336
137 1 1 13.65664667780758 12.048401901310486 14.189495073825313
138 1 1 12.272820494518577 9.178426807751244 14.712588711840558
139 1 1 11.019483044012306 11.319622683183525 13.908032279570032
140 1 1 12.435082978929133 13.571943611503853 15.548606054113012
141 1 1 13.808577861144292 16.495042307857354 18.770268941962787
142 1 1 12.455599365290256 18.684908183580774 18.006137245356754
143 1 1 12.647001508090938 17.659524212001802 13.982505988604366
144 1 1 12.306978832342354 15.695836640658676 6.645954321207169
145 1 1 12.829122256234184 13.411688903721519 27.983221725999186
146 1 1 13.804984672845633 11.199678839518487 19.788905984805087
147 1 1 14.742311515166625 10.489749108460241 13.58903700156916
148 1 1 14.863349981012046 12.241722982881317 12.420323675981566
149 1 1 15.012729539049504 12.51751992748848 15.403213709322824
150 1 1 13.990520035567156 15.905433068226579 16.926722293502625
151 1 1 9.594375725622392 16.030758493397606 18.67891141175836
152 1 1 10.851601454478287 15.663149802916806 17.363570107429673
153 1 1 13.875420287568602 17.723028244663794 17.281061128734567
154 1 1 14.635036482210813 15.828789159430734 13.398243122743082
155 1 1 13.191739935262841 14.704726721454008 14.155176301180104
156 1 1 16.443367484188283 12.550236922792925 16.566531934131714
157 1 1 17.196586626792094 8.97817386392973 12.128007745193942
158 1 1 18.876173528403275 5.778061862491653 8.896490495357632
159 1 1 23.99930644304899 6.071873706593893 9.416100052464856
160 1 1 0.5858769604711092 10.037489581178198 11.589171099205197
161 1 1 6.661681902119011 15.107879178796862 14.002872610304765
162 1 1 10.500856738635738 18.76163307991385 15.836670227372856
163 1 1 13.007710353170575 18.765261794938603 15.99503031875401
164 1 1 17.07848101575984 16.287870946624146 17.765093597271562
165 1 1 14.990949211345075 16.069166075969378 15.167344952407419
166 1 1 18.888000650492792 14.995833286967475 13.759031646953623
167 1 1 19.695062899009862 13.050120590106731 12.44569534036197
168 1 1 17.827133519994067 11.087426497742245 12.421432908696607
169 1 1 14.620168306405814 10.611653285749444 15.360199906906304
170 1 1 12.899336694583875 12.072814950263611 12.430783774789852
171 1 1 11.602752814951065 14.858188517581777 11.80257686099893
172 1 1 8.807867476688294 18.333931513013024 14.24582259345466
173 1 1 3.112748228486084 19.210210287105166 16.831025844446525
174 1 1 25.901014668469006 18.37108572500311 17.77347018074508
175 1 1 18.853228047864217 17.113645770009537 17.21993059369443
176 1 1 13.351781437807217 13.161122581936661 17.383601454570325
177 1 1 12.645556861520754 10.604436250345524 16.080272874484425
178 1 1 15.260684451629789 8.506307332463665 15.153098407206569
179 1 1 16.555755914436794 4.481606020283169 15.653296592006324
180 1 1 16.248226602386314 28.58679213757405 17.326845204993397
181 1 1 14.898249269852018 22.830620111944754 18.69643357794303
182 1 1 14.405024840131166 19.08116387066848 18.93607741799045
183 1 1 16.435856279878024 19.657781999480374 16.391982027643465
184 1 1 20.469185093518863 20.535554253132098 14.459134788085215
185 1 1 26.708006140356158 21.151023086369907 13.614909641520988
186 1 1 3.3551512658865312 21.340968566007643 14.571482298332873
187 1 1 8.523316881377099 22.583972488243663 15.218010399548277
188 1 1 11.060732970903254 26.084737948160893 13.939726872420717
189 1 1 11.625619445838025 1.2185770618612013 12.90110578505765
190 1 1 12.564313867559623 6.315535203938284 13.309502824492043
191 1 1 12.718626335520344 10.339785757281087 13.283130553139307
192 1 1 12.15895359556259 12.836547525723605 10.853565092322487
193 1 1 13.259761863527249 14.614851747304089 10.061844426305537
194 1 1 11.916538245986867 16.901059111157096 11.165767682932971
195 1 1 10.903102114488595 16.28306447583317 14.77470181036797
196 1 1 12.389503847793637 16.661673926223887 16.33735983125236
197 1 1 14.196426296696535 14.676793702417813 18.264299681786298
198 1 1 16.04848271677907 15.154938629099979 16.2528273608286
199 1 1 12.091576295061518 15.999788205065945 13.377661000965299
