ITEM: TIMESTEP
4
ITEM: NUMBER OF ATOMS
200
ITEM: BOX BOUNDS pp pp pp
0 30.0
0 30.0
0 30.0
ITEM: ATOMS id mol type x y z
0 0 0 17.15496695991409 9.550997802351585 15.510651684453617
1 0 0 15.68072488812634 11.131134629046956 18.031885263474745
2 0 0 11.906194171344332 10.407187038530207 17.64354830303411
3 0 0 13.204999212413528 15.648024858567817 20.878922143919432
4 0 0 7.732073966533579 15.787997910827514 19.84712917298378
5 0 0 28.328207733480976 14.327768114057141 24.156852924079036
6 0 0 22.43604414800543 10.585417635052089 21.16063719919393
7 0 0 28.81415173453627 7.477238658754259 23.357249052270056
8 0 0 5.5279149789258755 11.436927508000172 1.2726306235174774
9 0 0 9.80684852689602 15.239392382827715 8.043208934429002
10 0 0 12.858931080949485 16.80341782099928 12.234802868790588
11 0 0 15.290662089895088 19.108408998939677 11.376169883846606
12 0 0 13.810230363346092 17.97505380381242 13.650523094274462
13 0 0 10.429087195287382 15.356492170681124 12.144761051476658
14 0 0 2.807066366018922 8.436855813408412 12.036018690350797
15 0 0 24.042001174691062 9.231028678391311 14.551669903219368
16 0 0 19.218320936816916 15.7454304737865 13.348534917166216
17 0 0 20.038653513940254 19.22505733118121 20.085985579167897
18 0 0 21.539219211895443 20.29197715586928 27.430842152625914
19 0 0 0.5269027266178651 22.247670855333634 26.05125139944609
20 0 0 9.78957623691087 17.2634013160752 18.06994988148992
21 0 0 16.833418132330106 19.345364079791633 13.912189587650467
22 0 0 14.797866971694088 18.912635829518553 21.00128107196382
23 0 0 17.05405618144916 27.078711232585523 25.828951362802762
24 0 0 14.901422785967739 3.9953807671333252 23.089718159710973
25 0 0 5.108585327461315 29.695399721479795 26.445870026317795
26 0 0 23.91539408528074 21.9197286380294 3.2412207383171894
27 0 0 14.76299223126821 17.299903951782085 10.4874022038836
28 0 0 11.010885321741805 18.372018085766804 16.570481271327203
29 0 0 13.636060395924785 19.291550954678844 11.55594903635018
30 0 0 17.280387653685118 22.396577677218914 7.545514589057916
31 0 0 12.99458208689218 20.610640339961318 12.009992789620377
32 0 0 13.509441114782394 16.08789375544956 10.852160675901029
33 0 0 13.693483550231054 20.784750683481032 6.552392075725051
34 0 0 10.447062387743609 28.885927899136075 11.361637039979879
35 0 0 12.535487085141506 8.978255698632362 14.027392359718299
36 0 0 17.60130732983199 14.923607318308129 14.58093541677011
37 0 0 17.807205496483057 21.737750554723135 18.367239896933057
38 0 0 13.91725936944722 27.972626913375716 18.31459011199773
39 0 0 9.916349893368809 24.774881499903593 12.84545431791371
40 0 0 12.699006763039552 20.8519811536151 10.569682247629038
41 0 0 14.255580644657776 16.10311163697129 12.292275743471896
42 0 0 9.708076380502547 12.44783648767587 13.59695276681789
43 0 0 9.741474368840608 11.20035596154988 14.926473359782104
44 0 0 12.474838914366856 15.838697769290052 15.27657435673819
45 0 0 14.960588940282047 12.204960662751136 16.51147582838953
46 0 0 20.863789834365004 10.402079158863843 16.25326851838158
47 0 0 18.070740491699546 13.237747920076417 15.886740781674293
48 0 0 16.14955051793792 17.19615957141516 13.045906737167192
49 0 0 19.321099660363046 17.897796587949745 14.033022433285037
50 0 0 19.66768548527342 20.674552184213457 17.10190898821343
51 0 0 17.983726880060267 17.870463816155862 16.00129330280462
52 0 0 14.254754257330795 15.353260267743932 15.360568378552115
53 0 0 15.728554753811562 13.551370574536751 16.28946589137199
54 0 0 17.063631755501504 16.407946214495908 14.030974820370439
55 0 0 14.475930520149278 17.87483718616625 15.595378565549574
56 0 0 17.92570890986066 20.235224934850944 14.519825995385222
57 0 0 16.171785705259914 15.266099764397667 14.362905952920435
58 0 0 18.095389459788684 13.914415097519537 11.204384987244447
59 0 0 17.045976647856996 11.875430528577144 15.551829747901138
60 0 0 16.004513848142537 13.792260854507566 13.713844573371999
61 0 0 11.370906767549137 12.599582819628106 14.944080058402651
62 0 0 12.00497736971309 11.937547215122004 10.782140457939416
63 0 0 15.68515991881807 8.112220264731837 2.6188757153394193
64 0 0 16.825623381394596 10.648029501758339 22.10941499816913
65 0 0 18.493688593226167 10.256856914814719 13.667750063000145
66 0 0 14.66656553976916 9.857662705318901 10.737436996680167
67 0 0 16.415872019580966 16.31415389123929 15.360687254305263
68 0 0 16.14514124836729 16.73004425535034 10.815505137829138
69 0 0 15.971954634783906 15.645213237904104 12.151564646909007
70 0 0 17.786603601675136 16.307026037563478 16.108263203637428
71 0 0 17.957042573030837 20.137883057496666 21.805377627929
72 0 0 15.689766104572064 21.000287121095845 26.433739687853812
73 0 0 10.752773710416605 24.934067817430638 2.1710011832806724
74 0 0 12.431970133356451 28.635605666354692 6.499777242599035
75 0 0 15.554690058204011 28.833904732870938 4.913439769083416
76 0 0 13.530711292153574 27.394177972444556 28.513362789629863
77 0 0 14.844483472347713 2.7810766089362686 23.98389896832946
78 0 0 15.720364018742814 6.6451672983962675 0.6054258483606696
79 0 0 17.672840812194895 11.257384725686476 7.93514987179521
80 0 0 14.374473735649687 9.600723695799076 7.415589296086965
81 0 0 16.568908268299502 14.580298402777034 10.990596471067958
82 0 0 16.160492148287567 23.357499326605183 5.832639656485205
83 0 0 13.364595199766537 28.883502935834414 28.191683354617815
84 0 0 11.192117061637347 25.49709970380213 21.449570979783704
85 0 0 9.571569061897264 19.939867019721326 18.693180287305307
86 0 0 12.140986054556054 18.806046584324314 11.046101341782734
87 0 0 13.612492809076441 15.870293893506586 2.912943254324953
88 0 0 16.145968703012585 16.956032782197536 29.95190915332667
89 0 0 21.401014215996835 18.621192503388055 26.217176429434378
90 0 0 29.311288443712655 15.52917711149935 29.988073531742852
91 0 0 0.6071260828457021 10.25796331073404 28.759009362977743
92 0 0 25.411908222695477 10.408968784253446 23.212743588105212
93 0 0 27.71434959996506 11.89799516590272 17.531817316306903
94 0 0 4.4831061656545526 15.181748570894658 14.80357155382108
95 0 0 8.0966324232243 16.542754589209448 14.814582302468084
96 0 0 10.454304629867972 13.85107195803105 19.756006985474215
97 0 0 10.190494919203564 12.909352064612225 18.397496285015784
98 0 0 9.26863292990161 13.397764235722857 16.65205372894213
99 0 0 11.57646316232832 21.71754641634577 20.055513890829413
100 1 1 11.668048555344688 16.257236041340327 18.539357012066535
101 1 1 14.390030950032562 11.918286547844072 19.82902861698797
102 1 1 15.624303049919842 15.174287865158794 16.41018620457283
103 1 1 11.240365255513083 11.671881272008019 13.56624783537427
104 1 1 14.568116444558965 20.326868858863083 12.528305442387644
105 1 1 18.032293160636332 24.781108764826158 3.581084384269338
106 1 1 1.1900951428340312 2.2879346606007984 22.731634109106004
107 1 1 9.499123528802906 15.873488391721098 15.447975642394162
108 1 1 18.310704247752888 19.970539369882072 16.352610757205746
109 1 1 18.038129396777784 17.524319219167065 5.770285628112517
110 1 1 10.224214226429398 10.172503310018856 28.290785156585965
111 1 1 2.1522784859998874 3.76830733128406 7.648483147977945
112 1 1 12.84560260324512 24.308234887337978 16.41971258690816
113 1 1 2.4106993205627547 5.46848647675033 8.34423196799781
114 1 1 7.681081089524595 8.720920157453286 25.37768434992181
115 1 1 18.53083399910107 9.921991601885162 1.596635620768376
116 1 1 9.302132232490925 10.331030068792082 1.9259440944470245
117 1 1 17.635498826378765 17.795193539614697 13.332383379830969
118 1 1 15.920054010316731 7.814033775345298 17.443356255344202
119 1 1 17.6286782874363 15.974054006949938 11.178528627715687
120 1 1 18.953661727833545 16.145110094211653 14.877298905365054
121 1 1 11.964971467456206 16.93713019949695 16.90914076669091
122 1 1 2.853049496659616 24.08294588667541 24.83118143956919
123 1 1 11.778212808487064 14.469442078114241 18.674791234051018
124 1 1 23.890324938929986 6.4266695139194185 7.150083293108566
125 1 1 20.07555946501069 18.50421493675052 17.424268320002863
126 1 1 22.295685248275287 22.76220163317785 24.977104646837624
127 1 1 14.235111397817267 16.434957920557938 19.545352582034653
128 1 1 10.312114135605109 6.036710578468056 19.237209484615697
129 1 1 20.20589614674983 13.574325311844872 14.875343632824423
130 1 1 13.84163303988729 19.081406672337206 19.127630031665326
131 1 1 14.596624726399774 17.832661501486246 12.249730409069013
132 1 1 15.072636053106272 14.90905628369551 20.073303594903493
133 1 1 27.00078636116304 13.33568761063217 14.916230048852944
134 1 1 18.030886554276254 11.731822270472803 14.236853483025126
135 1 1 15.115257603147676 9.679602620742212 18.83950135913823
136 1 1 15.867805276018494 14.317455368003705 18.132625227920997
137 1 1 14.706156978319301 14.996056986771677 13.659112100374882
138 1 1 12.707096527733604 5.062173577853385 17.23069459217968
139 1 1 9.428293056874999 11.32396554533953 10.326406063659201
140 1 1 12.161437687396715 13.329586976076651 13.698011221391786
141 1 1 17.23229201758439 16.61356681661188 20.04538386949661
142 1 1 11.524231333539989 19.23065553761614 18.02638931555524
143 1 1 13.463609520491984 15.057688458523748 18.191776902855405
144 1 1 10.917470395053215 19.248921556318756 9.893629926584904
145 1 1 11.001207313559451 12.962832679256952 28.143697788776798
146 1 1 16.03557546686785 10.527885716426372 14.387542098935914
147 1 1 14.786660734001355 8.655778274554317 12.259119313702833
148 1 1 12.067824741190805 14.54085173979134 11.071933632864678
149 1 1 16.778545404630094 9.590575616877114 18.05627066702565
150 1 1 15.14450292348224 16.837037653605506 14.493041306497801
151 1 1 3.7155943081027636 16.428090783458664 22.90478468811609
152 1 1 8.704761819382147 14.43098612090584 14.951592479255739
153 1 1 15.473346052397451 20.053075911352106 20.195547599262376
154 1 1 13.485534240903002 12.858054786517975 10.832247213482207
155 1 1 10.616314684009891 13.752370051559593 12.252100340428942
156 1 1 20.76839868531971 14.437005352596142 24.215639778932182
157 1 1 17.19699393480102 12.406630548808678 11.488584425241879
158 1 1 12.15727548736222 29.25122377205977 29.560809288987304
159 1 1 20.617410725149178 28.977691103539698 9.400845586299878
160 1 1 1.0267900564638124 8.502359977112146 11.949204219634403
161 1 1 12.625416830147445 19.542437121858658 13.858214838450706
162 1 1 13.315485114686327 23.4200278507661 21.176219567811394
163 1 1 12.264724354668324 17.871644616584387 14.210061522040336
164 1 1 16.952688143449247 14.991855917913366 19.32945634759282
165 1 1 10.838614384113287 17.173569704030903 15.543164833595512
166 1 1 19.13359144027768 13.448565616163577 13.33546448630619
167 1 1 25.703637879818046 15.705503209798286 9.903499988226544
168 1 1 14.299989833446961 9.81712293103292 14.088251280422309
169 1 1 14.587616689209781 13.202679847488005 18.576977518605762
170 1 1 12.375730910251121 10.07052521623845 10.606736542416234
171 1 1 14.205035757100706 15.147953134270253 9.481544432592932
172 1 1 13.063880953311838 22.398755869363466 11.74425885564175
173 1 1 5.9865767098574905 21.808352757235017 21.287659341577164
174 1 1 24.625860306763844 17.302043606780888 19.92037972468172
175 1 1 17.144141459452836 15.959934308061 17.58204951964903
176 1 1 11.286260996242339 14.167558462660633 15.69745918978287
177 1 1 13.549271187634599 8.16881964770434 15.248823934418683
178 1 1 15.322641107369465 12.15320217639244 14.274771459816007
179 1 1 18.64083116851974 9.166892813363335 11.5308532047652
180 1 1 19.695858130746092 28.89672219341105 20.24173051975587
181 1 1 12.959280882202405 18.135492084800894 18.028774960687475
182 1 1 11.423832153278703 14.807233566268675 22.195067364778406
183 1 1 15.23055692296861 19.00343910062998 14.591786685023177
184 1 1 15.417879856853633 19.236318289801908 16.31942353693142
185 1 1 25.537339638234954 24.56586754729148 5.5557426111224535
186 1 1 8.502610982715451 18.489009978619528 17.81051570625091
187 1 1 10.65164128355416 21.114862683930088 18.919694408274996
188 1 1 16.05326481012146 21.02393931924944 14.451735948901952
189 1 1 5.321001203557389 2.598629768769547 6.723709598657813
190 1 1 15.33208973642214 9.146058642561718 16.426189851229804
191 1 1 13.962513010846276 13.227254382031132 15.14447458038529
192 1 1 10.308939370325767 12.879129589172994 9.0251212972636
193 1 1 15.211487066424331 13.434327623304236 9.463628760895974
194 1 1 13.496837409878239 17.892534483452348 8.9841319430257
195 1 1 9.760168392138441 14.882867022733453 16.755345637683014
196 1 1 13.0483343741523 19.04158300641905 16.456938612621002
197 1 1 12.911319697386924 12.925577296603212 18.30616692856602
198 1 1 18.83323455944848 16.162312918981463 17.77513657201595
199 1 1 9.51907564556331 15.733200150982803 10.81494978100836
