ITEM: TIMESTEP
46
ITEM: NUMBER OF ATOMS
200
ITEM: BOX BOUNDS pp pp pp
0 30.0
0 30.0
0 30.0
ITEM: ATOMS id mol type x y z
0 0 0 11.51641257459733 9.799600570370469 18.649447796023985
1 0 0 10.233630660059582 10.663067779668792 19.586918107015194
2 0 0 9.075593248048875 11.277929603630945 20.867066571117196
3 0 0 8.104244432307583 11.77705924087488 22.373597631303912
4 0 0 7.344004141245273 12.212075065061251 24.051601619286345
5 0 0 6.794199133135071 12.608535008369808 25.85619366183639
6 0 0 6.430475512780381 12.980473545420157 27.748279145672598
7 0 0 6.2091497767346615 13.33511019308465 29.696248852097103
8 0 0 6.071474010129189 13.674127715094901 1.6760454360824248
9 0 0 5.945918124832749 13.999904513968312 3.6681062635704365
10 0 0 5.76349068990501 14.308120278734126 5.655518910891074
11 0 0 5.4436397314759075 14.59849180169764 7.615582900643373
12 0 0 4.922426266278787 14.876886836016926 9.515849833352565
13 0 0 4.178164421051118 15.161331244948954 11.320012319892268
14 0 0 3.27077274653185 15.480502667367945 13.022601351745656
15 0 0 2.4955710064660694 15.70696069919363 14.77589153739521
16 0 0 1.9669372351584224 15.954159612795564 16.599227779803464
17 0 0 1.882501287377563 17.152782929718953 18.083719985270864
18 0 0 2.3292620967567115 18.33640471059009 19.514788032392413
19 0 0 2.884413297076155 19.415563546630032 21.006828593520762
20 0 0 3.153960094234189 20.39048397544021 22.664416100930556
21 0 0 2.9036530250634875 21.205181872217537 24.44725417666703
22 0 0 2.1537215598743273 21.834451233927776 26.23186674346729
23 0 0 1.0299060171503467 22.321625166484043 27.95934259403407
24 0 0 29.638608792112507 22.73483383204438 29.625709911440254
25 0 0 28.055880635842456 23.145887604166827 1.2387054241951978
26 0 0 26.343718566404842 23.630673531614505 2.8012581735402864
27 0 0 24.562850967834407 24.273957163889307 4.306891095940297
28 0 0 22.783126804948736 25.16813866144304 5.738022774420776
29 0 0 21.08900154464672 26.399355931846216 7.062917836322712
30 0 0 19.575151499031023 28.018350105523936 8.236260857320366
31 0 0 18.315303233625944 0.01758517269955833 9.216615013167369
32 0 0 17.330907753532024 2.330508734894068 9.983533298505467
33 0 0 16.57517506860888 4.864878511727409 10.5471647069131
34 0 0 15.947955721970413 7.5282099622914584 10.940439067190459
35 0 0 15.32394037925335 10.230488729661925 11.209710531399839
36 0 0 14.627054470205897 12.929126859536412 11.370831050564775
37 0 0 14.21835505888949 15.391179912225155 11.729850636517597
38 0 0 14.277884635849558 17.517995698987644 12.436556014852497
39 0 0 12.69756000979883 18.664213707784537 12.677985411835163
40 0 0 10.843105478805874 18.290771808916777 12.777854867851401
41 0 0 9.631645625679218 16.823493918115663 12.968910697432927
42 0 0 10.195589120594216 15.400014715245652 14.693726693043736
43 0 0 11.14779162933742 13.880445320180867 14.444343880287025
44 0 0 12.826595084772633 13.20459019052542 14.918714704416857
45 0 0 14.760617936905035 12.436321791259855 13.284659194925318
46 0 0 16.514465051480574 12.679648755625298 13.479688101874302
47 0 0 17.016455603568986 13.90060249649736 15.029585608347295
48 0 0 17.68529171354815 16.067100967362226 13.73708469911727
49 0 0 19.269928019957316 16.966518325377994 13.754940412119614
50 0 0 19.32300176722832 18.065498285396895 15.188566043852104
51 0 0 17.82174610100856 17.152827213943976 14.950859195510045
52 0 0 16.04348964634974 15.738509683726507 13.645253255407884
53 0 0 15.98415931747632 15.138381463531676 11.963054110305755
54 0 0 16.17997017188163 16.921081050178127 12.348724089627382
55 0 0 17.934841836166118 17.397560181602366 11.998663185688896
56 0 0 18.39702214685772 16.31014903899277 10.493309185855637
57 0 0 17.835002770808106 15.152217399673464 9.053586493712741
58 0 0 17.54833232479531 14.241260006461896 7.25547220365271
59 0 0 17.391550177772004 13.566911156713227 5.18347307087588
60 0 0 17.32203403374241 13.082572495835668 2.8730502707387613
61 0 0 17.33118729618008 12.750107198260455 0.3497846034781506
62 0 0 17.41447884348844 12.539689997002405 27.637174742836187
63 0 0 17.562134427695657 12.428136573589658 24.768503507763345
64 0 0 17.759886159980212 12.394117035527966 21.78496416636448
65 0 0 18.007047118305405 12.407177453822287 18.737850174150417
66 0 0 18.339166590383595 12.707669575699391 15.354168125478676
67 0 0 18.223086651750457 13.2311982512776 12.302138098874632
68 0 0 17.70646700211812 15.705684028748276 12.131791550364245
69 0 0 17.116705828207177 18.246540815067956 13.816617057283276
70 0 0 16.638634729783185 19.863168811633344 16.68136686507426
71 0 0 16.344016418641704 21.341015128794666 19.28863195753866
72 0 0 16.01295079451059 23.11151272122115 21.442195059812843
73 0 0 15.717902469861526 25.02771011028601 23.38241645901496
74 0 0 15.473668412308003 27.105883873628574 25.06254190820431
75 0 0 15.279340190214711 29.34052064059695 26.429411323793282
76 0 0 15.12788836641359 1.710906723642098 27.42027975090133
77 0 0 15.013077343432178 4.178769401989256 27.964166555703553
78 0 0 14.933935521989515 6.6814860005524395 27.992134982129947
79 0 0 14.89904512557276 9.131486964375155 27.460623177024736
80 0 0 14.9308245261236 11.435909543406694 26.37881857352052
81 0 0 15.067485629147217 13.532717365990358 24.814917145638034
82 0 0 15.358961287860101 15.416061271291928 22.874748048246737
83 0 0 15.849921043379322 17.14459738495576 20.681279758649307
84 0 0 16.79364453318736 18.411671222836713 18.23270202859658
85 0 0 17.50418886189379 19.106416074826427 15.30913349222717
86 0 0 18.229132249386026 19.09423507793217 12.464070093243683
87 0 0 19.210203059379403 18.42496800605514 9.720490355628918
88 0 0 20.4720595617393 17.750920406134494 7.0759590759765425
89 0 0 21.922755973380028 17.108791829524215 4.5388599897029085
90 0 0 23.506161866986684 16.51402633132799 2.132636851207569
91 0 0 25.184716626113154 15.979932093972314 29.88516589736645
92 0 0 26.93024030772801 15.518070669762022 27.82474172779389
93 0 0 28.720358734170016 15.138484669802398 25.978354174602817
94 0 0 0.5393153917760531 14.850691046609215 24.36942892626646
95 0 0 2.374409628708979 14.666751059372947 23.022164153269415
96 0 0 4.219590759736533 14.605278251168793 21.960615041053117
97 0 0 6.071225291028582 14.702272267203588 21.214456197383054
98 0 0 7.902409360517484 15.034514226343456 20.824245577394624
99 0 0 9.588955667601821 15.757048104459301 20.81062521849795
100 1 1 12.552678133534052 14.757073121317081 20.19575826027095
101 1 1 13.975896509333976 13.274232579150773 18.683538027298322
102 1 1 15.075579343625039 14.22234077637201 15.156803472657383
103 1 1 16.67262649722306 17.450029948392018 10.493165341779806
104 1 1 20.00824709388084 22.06842438844576 5.8743385930192575
105 1 1 24.62803340032646 27.610266653518668 0.5835250855442984
106 1 1 29.953103792484793 3.2646239956323297 24.826884619616116
107 1 1 5.040690580230051 8.07312207732725 19.138782123632833
108 1 1 8.832947574684184 11.054893344941204 14.022767952986829
109 1 1 10.794543992391347 11.458862090445752 9.999528819223833
110 1 1 10.768974431535499 9.369267051407727 7.987830499516644
111 1 1 9.761504123662593 6.8472229789590795 7.501473199090782
112 1 1 8.591963306696284 4.8515690358315435 7.269494844654728
113 1 1 8.729806441331474 5.887439487905453 5.4284610711695755
114 1 1 10.140123522051178 7.583850184373188 4.526100862562755
115 1 1 12.036705879473388 9.426538186794222 4.917017870206782
116 1 1 13.71494992625346 10.844802930638489 6.828932573886505
117 1 1 15.090709200517937 11.623001178176843 9.35630827959791
118 1 1 16.42786719293608 12.186005910787193 11.643160823986367
119 1 1 17.286753385870313 14.301574469025482 13.336657690115088
120 1 1 16.661321520954946 15.725685067608323 15.410829782042748
121 1 1 12.13929598828084 17.540949855313 16.778442838521872
122 1 1 11.240385192730862 16.951288176597277 18.64000745556877
123 1 1 12.711218686328353 14.688193507559824 18.15328741910921
124 1 1 16.528209111510915 14.434886587567274 16.886306619104882
125 1 1 18.980889717528406 15.121048852752795 17.918188504103536
126 1 1 18.465504128793935 16.271214754271234 19.54018713988332
127 1 1 16.779725505541194 15.401019346759329 20.523167252046434
128 1 1 15.931009007520991 13.494851314050345 19.993638418503583
129 1 1 17.186226604418806 14.49411992249133 18.79440321490037
130 1 1 15.505721320893187 16.831798523812537 18.436512844196457
131 1 1 15.062304725498317 18.40323097158065 17.172568103779128
132 1 1 17.201213631185812 16.17514185571791 17.577551573505787
133 1 1 18.45729189434581 13.398025533354303 17.123300291642312
134 1 1 18.759841719523802 11.278518423579127 16.98303230028721
135 1 1 16.788886152300826 10.867928374633403 17.54271806716026
136 1 1 14.829670638285252 11.561467770884288 16.979115660431138
137 1 1 12.788640908979984 11.164939677439039 15.765319438413774
138 1 1 11.614250351066545 9.837113402091934 14.708953499598673
139 1 1 10.928632844556667 11.928405806548808 15.196523021853114
140 1 1 11.47107064482578 13.860930046564505 16.52229030707819
141 1 1 13.169113745720885 16.593780335005622 18.054606309057604
142 1 1 13.223826227147335 19.033353588579924 16.009041983754656
143 1 1 12.963810365135956 17.36940652557623 11.065728825030739
144 1 1 12.954608888151796 15.48954439950408 5.078844730935436
145 1 1 13.221230993364918 13.57908792583283 28.3216357260819
146 1 1 13.7395530818987 11.745853415559582 21.670418499071584
147 1 1 14.455692968103998 10.049751343208618 15.855457660499965
148 1 1 13.857935415173571 10.857188469254563 13.41739482587003
149 1 1 14.357956356107648 12.277067231486106 15.069657768444507
150 1 1 13.30719941418133 14.498666434562356 16.300137546082375
151 1 1 10.764161964472674 14.91265422166478 18.215100971826647
152 1 1 10.832986868064161 16.010174764936462 16.562809495275424
153 1 1 13.831962148204088 17.119243418830365 16.074810627926453
154 1 1 14.128992086505429 16.348168597083514 13.99002210367197
155 1 1 14.704806754587166 14.204617098313909 13.31551625950962
156 1 1 16.525121343290852 11.941063313237208 15.122138153755012
157 1 1 18.259016840334535 9.43643082653813 12.913536469596677
158 1 1 21.345112778012517 8.354005379447388 11.291512740418709
159 1 1 25.610530543327645 9.007878915433706 11.140421402645721
160 1 1 0.30343520569994353 11.168855349901312 12.086155374424774
161 1 1 4.855305721789969 14.019490244026704 13.470212450240592
162 1 1 8.821516830868065 16.719818847800074 14.700806271911336
163 1 1 12.771749809160044 17.88973386827786 14.556661866286186
164 1 1 16.598013843124807 17.6879357284562 16.32277321977487
165 1 1 15.785687008776293 17.25215239974938 14.673485111677651
166 1 1 18.67091280810621 15.107149474143068 14.882078961930585
167 1 1 19.492514744178013 13.245761207665762 13.604491659070268
168 1 1 18.2062687626534 11.426120879111267 13.48933439901887
169 1 1 15.804997897134225 10.756492199149337 13.72974659630455
170 1 1 12.54840638561639 12.59385993670658 13.24079688355167
171 1 1 9.528528162694128 14.754825001459533 13.071584592108385
172 1 1 6.026717944953568 16.786604942472827 14.447364341742682
173 1 1 1.3563198628575663 17.72758590427643 15.787111653209521
174 1 1 25.952641907461672 17.439011814224166 16.711600501613095
175 1 1 20.65163448396854 16.100717651888086 17.13262848351311
176 1 1 16.093306583093796 12.8783438950523 17.8480770067198
177 1 1 13.946283073260407 9.770492137397559 17.67135228491136
178 1 1 14.82046395964844 6.78406182685119 16.368616948714184
179 1 1 15.51858332452232 3.033225094157551 16.47827762004954
180 1 1 15.664991708844726 28.894206765885343 17.113837401980586
181 1 1 15.603399675357068 24.981937477487087 17.630451811052378
182 1 1 16.208819668075655 21.920629465110746 17.371009749111384
183 1 1 18.835721997317965 20.733605172016286 16.207043462980707
184 1 1 22.59502918175547 20.773706150925552 15.163909963562066
185 1 1 27.205268303345772 21.322624060006465 14.611012032931427
186 1 1 2.0393492615725592 22.348369444981678 14.457465780780929
187 1 1 6.326421665415588 24.24711092148131 14.327098965102444
188 1 1 9.381411246146662 27.345319271692976 13.927603935559185
189 1 1 11.09709778648863 1.240616511268414 13.423328799281258
190 1 1 11.965805755354006 5.254449799433665 12.931955125108077
191 1 1 12.335400535369628 8.865553181340358 12.244630031692921
192 1 1 12.50914318883664 11.772042640955043 11.30859505534428
193 1 1 12.508242144347015 14.193553638024168 10.779538107006841
194 1 1 11.44776736239668 15.839086617113377 11.681647526096839
195 1 1 11.354341924517414 16.51916670134323 13.6594540252642
196 1 1 12.386684472051936 16.037851904194 15.422705084913742
197 1 1 14.57320411927809 15.092467773260259 17.99523863622383
198 1 1 14.99752753632831 15.721964630992352 16.279279273497973
199 1 1 12.881612566772565 14.82868450787428 13.997376230818013
