ITEM: TIMESTEP
66
ITEM: NUMBER OF ATOMS
200
ITEM: BOX BOUNDS pp pp pp
0 30.0
0 30.0
0 30.0
ITEM: ATOMS id mol type x y z
0 0 0 10.682794656074773 10.321157722628275 19.429906674489246
1 0 0 9.635989200012013 10.94966682142812 20.743457295154965
2 0 0 8.746683608838957 11.48925925867606 22.211683192244983
3 0 0 8.028678745412314 11.954058765567696 23.8020004863795
4 0 0 7.455219239510251 12.36750428694954 25.470942179614497
5 0 0 6.992971591257372 12.744590137163708 27.190000576345643
6 0 0 6.6053975721904 13.095113027251163 28.940708841481523
7 0 0 6.253627570312791 13.427790806089707 0.7103359534870614
8 0 0 5.900356486043587 13.76188522548061 2.4874689492063466
9 0 0 5.53755556355486 14.099329677275874 4.270249425635284
10 0 0 5.138533278159386 14.456692998972327 6.04970229240911
11 0 0 4.700992162294714 14.851227217650658 7.820501090120843
12 0 0 4.237992555724387 15.298723358178197 9.58028835990372
13 0 0 3.7746765389721513 15.817969946622435 11.32873146890111
14 0 0 3.3422127148918697 16.38400670707346 13.082025923426738
15 0 0 2.968871602489753 16.903840114436463 14.867757213172002
16 0 0 2.6376516967353987 17.482957684172323 16.65157470971893
17 0 0 2.3129836271536566 18.11934369382168 18.425296961747822
18 0 0 1.9489737708936092 18.811716474920438 20.1784287707753
19 0 0 1.502849737220112 19.551371439909452 21.900994821245263
20 0 0 0.9470441820477936 20.3247468915941 23.58434610342281
21 0 0 0.26955383808967254 21.121730756014138 25.21941408391045
22 0 0 29.47180635312638 21.939777383074844 26.79680284169668
23 0 0 28.565490728206324 22.7843077578897 28.307894155388535
24 0 0 27.568973317109265 23.666678439638755 29.74572739152721
25 0 0 26.504081970976117 24.601115374888565 1.1050708402027554
26 0 0 25.39371851083348 25.601713260861622 2.3819388188565647
27 0 0 24.26023649717834 26.679994612267905 3.5731045597998023
28 0 0 23.12419368422484 27.843205690540852 4.675872380047592
29 0 0 22.003249745810905 29.093492391545226 5.688084876643392
30 0 0 20.911193206242686 0.42791583809369715 6.608231881287727
31 0 0 19.857074748833316 1.8390769212009421 7.435447145485667
32 0 0 18.844279593435104 3.316065164881709 8.169136341344501
33 0 0 17.86925558376651 4.8452980330286115 8.807871069755034
34 0 0 16.91938895765659 6.410614122355257 9.347174641812165
35 0 0 15.969013888719918 7.991524531188252 9.77591263317711
36 0 0 14.971630477437868 9.556012284707613 10.0707825215367
37 0 0 13.86024186710099 11.047526409323474 10.19424453130134
38 0 0 13.358418963564874 12.852276227718454 10.081016507386307
39 0 0 12.591073042038506 14.502715341368516 9.773995320444863
40 0 0 11.092128824221595 15.457558667526998 10.284088836719453
41 0 0 10.098192290411161 15.576279937493931 11.814917894659342
42 0 0 9.438036030205724 14.707402917478044 13.286484157957515
43 0 0 10.076629969995993 13.368025859872933 14.397510560803559
44 0 0 11.924851832447636 12.42612253922121 14.63394666689593
45 0 0 13.944811970158305 12.198424626559683 14.651024257113326
46 0 0 15.785860422035238 12.869263597909038 14.934640889954183
47 0 0 16.63468308139228 14.394322320038004 13.838733491143058
48 0 0 18.186516676872387 15.342237338285937 12.748168215959666
49 0 0 19.709420368027505 15.839656273364207 13.842777576543968
50 0 0 20.312062899098812 17.074021064888875 15.30930793960595
51 0 0 18.35090632392223 18.061386062484193 15.445324886495406
52 0 0 18.22142196934272 18.953914494007005 13.522084957863488
53 0 0 18.67078478411565 19.070235301131184 11.5152956617662
54 0 0 18.353766048637528 17.79640586796035 9.966814616035025
55 0 0 18.117083213012933 16.670414920047918 8.349076762107106
56 0 0 18.021811243205512 15.779307283640973 6.592943686063258
57 0 0 18.02629332106336 15.095488167382994 4.750795330799684
58 0 0 18.09692652317244 14.58917113825476 2.8554343292876747
59 0 0 18.223374044253973 14.229220889807266 0.9282301537941089
60 0 0 18.412174773320107 13.98524886503742 28.98403826617646
61 0 0 18.67672335310031 13.830986716421448 27.033611660850156
62 0 0 19.03240215859816 13.74546247440742 25.085775345548118
63 0 0 19.491971881583996 13.715089206571982 23.148782357996392
64 0 0 20.02214252395855 13.747513013970737 21.214297688150488
65 0 0 20.047394654585396 14.107197655143935 19.235256962475333
66 0 0 19.905386492558375 14.965842511694797 17.420528415630912
67 0 0 19.275512404866053 15.803129194858785 15.669908212937482
68 0 0 19.22727290929534 17.588984062433866 14.127226393044726
69 0 0 19.02968292207263 19.677854473926917 15.167965609535415
70 0 0 18.397361822077613 21.288382201304525 16.435679152090742
71 0 0 17.827162697693293 22.953376589005504 17.66377398364759
72 0 0 17.329674273743333 24.688977559450297 18.824805309305166
73 0 0 16.91095224571074 26.50654959088338 19.887713330590973
74 0 0 16.57263636842749 28.4112534812027 20.8200836512596
75 0 0 16.312382656221978 0.40004934599620406 21.59313416279978
76 0 0 16.12530008138696 2.461654537642717 22.18741715785327
77 0 0 16.00543409488069 4.578854252128224 22.59780002515682
78 0 0 15.947231444690456 6.7326991473150715 22.835563696975402
79 0 0 15.94727988720277 8.906713081402842 22.926256573663608
80 0 0 16.00659770842656 11.089043456656542 22.903834705223826
81 0 0 16.132463182774305 13.271845752496338 22.802659262856913
82 0 0 16.4432074403257 15.297779643555105 21.896898201929005
83 0 0 17.489624273538706 16.68980126602793 20.379732245103792
84 0 0 18.66791621192404 17.54374326181408 18.53045338042995
85 0 0 19.853260460394367 18.235377770758337 16.632023132105644
86 0 0 20.885077494660294 18.501259425604214 14.388910397048884
87 0 0 21.63352680174962 18.130501642597444 12.230752741104777
88 0 0 22.445572208947997 17.7846503132231 10.116325221700754
89 0 0 23.317526437935424 17.458754699118778 8.05706669673301
90 0 0 24.249184336247666 17.146193914902074 6.06554695145948
91 0 0 25.24171540915605 16.84349250661295 4.153766689595406
92 0 0 26.29576276839073 16.551226953783743 2.331950429436293
93 0 0 27.41096981518775 16.273145915625093 0.6077826411720672
94 0 0 28.586343858063902 16.014504274956003 28.986325248005006
95 0 0 29.82087148487992 15.780995430767582 27.47056303767562
96 0 0 1.1139150899867543 15.578548001276166 26.062392445680373
97 0 0 2.465169892361681 15.413564579123745 24.763834385199598
98 0 0 3.8743651987260983 15.293308043178166 23.578303886141686
99 0 0 5.33361528765902 15.220925793738681 22.502304721701087
100 1 1 14.984066421146766 13.90576344058472 17.445964114142694
101 1 1 16.218759170483516 15.25659498977747 15.485084203658007
102 1 1 17.822237113759982 17.477481917764774 12.105123784198993
103 1 1 20.129996191753225 20.589004300911544 8.35659694621036
104 1 1 22.831946634164357 23.893286130294467 4.303593816161664
105 1 1 25.782770437099668 27.229019760424894 0.10752171324112705
106 1 1 28.797679124984278 0.39384647483708524 25.93602623867145
107 1 1 1.679797886091282 3.1687695199484063 21.945403533519936
108 1 1 4.247489740977647 5.366529585805513 18.268285401745548
109 1 1 6.362940381093785 6.861932191706933 14.994970544386556
110 1 1 7.940288277064341 7.586777285955932 12.16024078186805
111 1 1 8.908595530463593 7.4890386980137755 9.76635892728837
112 1 1 9.179184835470684 6.547415832793167 7.744869120376724
113 1 1 9.594663891933667 6.779382958712175 5.670124997015636
114 1 1 11.060244929218353 8.285829421548312 5.583551241923556
115 1 1 12.502777493977012 9.599915874114883 6.45230566992685
116 1 1 13.859033663926967 10.799402841052736 7.668120084848566
117 1 1 15.128675232383154 12.122142160452464 8.94182730084072
118 1 1 15.670757947697142 13.629558096245152 10.566049445358908
119 1 1 15.949298911472194 15.27201096399669 12.192723743434343
120 1 1 14.925620583314059 16.456347587892292 14.011652380905149
121 1 1 14.246455879602522 17.52542143342911 16.075035323409363
122 1 1 12.94542504726895 17.44885260514229 17.74096660109665
123 1 1 14.085284249339836 15.850035909809801 18.401162570500237
124 1 1 16.104294039374526 15.587655067599758 17.793506574251662
125 1 1 18.05879171353513 15.35022155816902 18.548669796053698
126 1 1 19.241070365894657 15.788575011385698 20.194232621288347
127 1 1 18.064583806343514 14.420120002343701 21.23029262008018
128 1 1 16.413942641607562 13.19446245122158 20.838847228753995
129 1 1 16.235354594616584 14.972339661152262 19.84697299091509
130 1 1 15.682397997996164 16.964940211869596 19.48582373549917
131 1 1 16.306991507805396 17.779511081586175 17.654348094426457
132 1 1 17.662486179456018 16.49804931282583 16.665993286744683
133 1 1 18.050396699669594 14.367002254406593 16.479090043532892
134 1 1 18.266275171533973 12.326715115354556 16.105605548168118
135 1 1 16.628085091628943 11.356124108517639 16.961341025729542
136 1 1 14.991708438634046 11.823438509069227 18.226191644189996
137 1 1 12.396262543117093 11.465534972044201 17.958257441477834
138 1 1 11.660138975563557 10.863902103832357 16.048956680110905
139 1 1 10.472238519399282 12.577195350756993 16.207404517360757
140 1 1 10.803627277551541 14.640315312527484 15.69024629719846
141 1 1 12.587150877353768 16.116395006979218 14.674076338809098
142 1 1 12.895148193725955 16.390298755634923 10.984288959956793
143 1 1 13.124760585418338 15.769969829537333 7.203545201284294
144 1 1 13.306263803699629 14.839322297035022 3.1803364584155736
145 1 1 13.464132354077671 13.744217424068376 29.09664251919142
146 1 1 13.618842452587497 12.590424347056233 25.192229514120935
147 1 1 13.758728352054698 11.44499231746042 21.737737606952592
148 1 1 13.810122247094421 10.36829256187814 18.99069107423544
149 1 1 13.796373919181537 11.882977991527351 16.607159637894718
150 1 1 12.555934169437275 13.609120748108325 17.254038730842954
151 1 1 11.446742243005044 15.453375364023858 17.562117862896418
152 1 1 10.900898985516065 16.74256998611612 15.765907126236753
153 1 1 11.905608137432539 16.69973596850959 12.986389434943138
154 1 1 13.823017849875587 15.228986232159263 12.5853174816604
155 1 1 15.414755821238268 13.180864491375024 13.027736789630712
156 1 1 17.90150718094377 11.592864867463593 13.69697636340835
157 1 1 20.670027233204497 11.181054197234394 13.335178547944645
158 1 1 23.71737645773032 11.233155923102274 13.031172141802985
159 1 1 26.968833049159198 11.768556164008777 12.913620383360456
160 1 1 0.3000988712012179 12.732036479438285 12.956875497724793
161 1 1 3.5933069182190485 14.026181303207506 13.034931026575618
162 1 1 6.803056913089079 15.672773564151802 13.562419174020485
163 1 1 9.898688256162396 17.11797081405792 13.876897563173568
164 1 1 13.042871546146987 18.170043938760806 14.278800414944296
165 1 1 15.882839236510355 18.056384483676265 14.791230718879524
166 1 1 17.485323212412805 16.219244282276527 14.308346165519273
167 1 1 18.332743301551105 13.721973366049067 13.726720983247299
168 1 1 16.939884293962336 12.439748037858827 12.048560553173356
169 1 1 13.969670102902121 11.792005495732912 12.24455472285642
170 1 1 10.800776107702701 12.37548714111867 12.970389258028781
171 1 1 7.5883435141126725 13.504201962045007 13.991298372466234
172 1 1 4.136769801984598 14.44849170899979 15.052878384242957
173 1 1 0.38243401216614104 14.64762257934408 15.680224383465754
174 1 1 26.682290474483462 14.194257675583684 16.396374817141655
175 1 1 23.259519682406218 13.050556934510738 17.079759707994807
176 1 1 20.3446518979153 11.2099076313837 17.559761466836573
177 1 1 18.155823844120118 8.756249377239534 17.69592056346376
178 1 1 16.84083387119462 5.888077855094336 17.555981716858195
179 1 1 16.3646386063477 2.863073767722421 17.308842239472586
180 1 1 16.61516516184156 29.8968180332398 17.049901229766473
181 1 1 17.574608599669485 27.184982586201755 16.764961706549332
182 1 1 19.318086007990082 24.99610414110212 16.398329533532962
183 1 1 21.795550630315514 23.64170878882092 15.94679739063337
184 1 1 24.743087554814327 23.2238696841225 15.468620438826
185 1 1 27.8946859118712 23.6395494534275 15.009084188451375
186 1 1 1.038854857447225 24.767036098170497 14.577823938606898
187 1 1 3.9802766243386833 26.506495946016337 14.161276015109463
188 1 1 6.542694662730779 28.74532250696719 13.73642158286469
189 1 1 8.601577773711835 1.3294516990786855 13.282457411565504
190 1 1 10.111246598362749 4.0681061674669525 12.788388716326857
191 1 1 11.10006963493774 6.766096130575329 12.254800928142878
192 1 1 11.63413521164266 9.259823830040796 11.693520317407849
193 1 1 11.778902556055991 11.533634683782033 11.127257377678879
194 1 1 11.567896364880774 13.708472416538072 11.453258291436736
195 1 1 11.505784933199495 14.585494117803535 13.402051012262572
196 1 1 12.698909127450234 14.152460559629256 15.169504083022847
197 1 1 14.059520685165886 15.367124127679322 16.17039680502892
198 1 1 14.578501466504319 14.395392821152594 14.45394807378913
199 1 1 13.19417089035069 13.377323258423296 13.254833322680895
