ITEM: TIMESTEP
7
ITEM: NUMBER OF ATOMS
200
ITEM: BOX BOUNDS pp pp pp
0 30.0
0 30.0
0 30.0
ITEM: ATOMS id mol type x y z
0 0 0 16.853631159404287 9.447055809967564 16.080515599283213
1 0 0 15.160817079439997 11.173161062213303 17.474167761200572
2 0 0 12.591801547769824 11.449591978270876 18.33095451108157
3 0 0 11.473311026538038 14.491644137806922 20.12629963109487
4 0 0 6.408430496204673 15.058758140288846 20.891909272469455
5 0 0 29.7807882406441 13.72893403111079 22.593889241776257
6 0 0 25.856489045596827 10.967342874802835 22.50014052301019
7 0 0 29.539038142374608 9.465353239254581 25.247412540212263
8 0 0 4.8065938014814416 11.602639013335645 1.052100766654766
9 0 0 9.085281196740784 14.575521372328572 6.926665236572703
10 0 0 12.02983948481992 16.725964928116415 10.822097931478174
11 0 0 15.033302044789021 18.59331328939723 11.227473722957313
12 0 0 13.071398812170452 17.287833457748032 13.20656996830146
13 0 0 8.879360034727597 14.554481300302877 12.793509143234116
14 0 0 2.549712773178802 10.760806757703188 12.7734621442747
15 0 0 25.488409435980902 10.995480404404065 13.928734083624665
16 0 0 21.209774049947104 15.037055986164683 15.12600095988718
17 0 0 20.90565500755343 18.427432494572514 20.06962213633002
18 0 0 23.82873554276398 20.125825678392644 24.764161044075323
19 0 0 1.0265846035249753 20.538417546986803 23.919133306361505
20 0 0 9.10576027409828 18.666849770703628 19.322418338835128
21 0 0 16.129914734260197 18.12965670268379 16.163305863929075
22 0 0 15.357326012091097 20.72066742208527 21.231380885938243
23 0 0 15.546276840442669 26.388920773281413 24.114700322654613
24 0 0 12.245478078992742 0.6830460486063558 24.643045638815117
25 0 0 4.254769921192208 28.242593803931626 27.795356166552573
26 0 0 24.76773191164157 22.970753946697858 3.3884214631776466
27 0 0 16.716595348834268 19.280168424659276 9.579810846354182
28 0 0 11.67847963926367 19.216164165524805 15.268957599316451
29 0 0 13.516357559968329 19.15542589896145 11.667543978506098
30 0 0 15.439125962604518 21.18830409350683 9.468323420161223
31 0 0 13.315244806108655 20.630962798388083 11.458138215727235
32 0 0 13.598586132991068 17.914028625476 10.835675760436843
33 0 0 12.99591448294627 22.35180441934161 8.872229729961864
34 0 0 11.931054432395367 29.542264292835235 11.046755387031322
35 0 0 13.373086388997917 7.795772034871267 13.318267025342243
36 0 0 16.981466539154038 14.723122135838974 15.314115895321695
37 0 0 16.654438362275435 21.029910683520047 17.24812683076498
38 0 0 13.995577155355955 25.379663144675575 16.881986572542733
39 0 0 11.51469818740153 24.228919733561536 13.487852207054654
40 0 0 11.872362416044123 20.702629396339166 10.88649584737939
41 0 0 12.866207941485094 16.144319128536438 12.216345214385866
42 0 0 10.009232031155795 13.328332555821104 13.853553293554278
43 0 0 10.43625365955398 12.207257624560278 15.110667368414283
44 0 0 12.889727489329555 14.589561935785772 15.128435400307124
45 0 0 15.476595183901669 12.32021801754963 16.21874792755088
46 0 0 18.972674049037913 11.413559286454866 16.197494250555295
47 0 0 17.88361553407791 13.50374140700761 15.612900033568687
48 0 0 15.98490030485623 16.574977699429567 13.655850011417723
49 0 0 18.820509177024512 18.16104009094983 14.452731089942159
50 0 0 19.587554763733184 19.82023184565623 16.481744221004174
51 0 0 17.79275055238497 18.057956598595815 16.072312924915376
52 0 0 14.112375898277909 15.32057873028827 15.63315704255123
53 0 0 15.805190556284092 13.730561966189901 15.504617626973742
54 0 0 16.993122665273695 16.42531939870363 14.769257271409963
55 0 0 14.781295691381493 17.61730914711037 16.261783085068164
56 0 0 17.161534269290836 18.710823613528692 14.337576936570352
57 0 0 17.089072326939643 15.18123305666673 13.617403106590254
58 0 0 17.439171652968287 13.798917629743455 12.401386154254787
59 0 0 16.82154166061261 12.505575385733302 14.903416141458255
60 0 0 15.887427423635593 13.514925324165517 13.852956414770764
61 0 0 12.685766433414878 11.968153843516061 14.643576523836277
62 0 0 12.901001594345578 11.459062272603166 9.178012562397699
63 0 0 15.114609051792574 9.6945692914345 1.7595965752326665
64 0 0 16.698365401342528 10.064892699753575 22.941284273303598
65 0 0 17.866120720723686 10.274321797160958 15.41124018233992
66 0 0 15.750218192645999 11.419920836011155 12.635929656666212
67 0 0 15.793689845669777 15.3005761914311 14.56975361680409
68 0 0 16.00103417511454 16.808319615805885 11.6077843842336
69 0 0 15.978952085480877 15.441537457097361 12.507396729302094
70 0 0 17.36659997033536 16.651584665503137 16.227821340641945
71 0 0 17.172942774182605 19.540361971802124 21.558568674259895
72 0 0 15.096689591625422 21.717087019866465 26.663065436699203
73 0 0 12.446330429192319 24.737960466526545 1.4641670139693144
74 0 0 12.710385917826486 27.62931034167612 4.847208029569222
75 0 0 14.673644143762965 28.472613162583517 3.5285851076779924
76 0 0 14.466332774526157 28.653956432856287 29.502363418007885
77 0 0 14.95934109369627 2.543189526713602 27.199727470266986
78 0 0 15.86378468447786 6.562868794852712 1.0145760624785176
79 0 0 16.70598792974265 9.804911342955043 5.83979123040961
80 0 0 15.289286644755315 11.267708177318102 7.8659591659034325
81 0 0 15.92627507787451 15.920848806471332 8.52489520443467
82 0 0 15.341112995488038 22.33656806945024 4.680696708078378
83 0 0 13.27001504439043 26.465876604633035 28.24656002752059
84 0 0 11.407420841435078 24.666792918652405 22.238446349649028
85 0 0 10.288329067399742 20.51574378180874 17.094619464953073
86 0 0 12.02393816463309 18.53590293405132 11.111396266315584
87 0 0 13.920076247511167 16.901438866809034 4.502530244909744
88 0 0 17.05178565804098 17.073547610460487 0.235304154369378
89 0 0 22.009215792808362 17.303206341096292 28.009613361710716
90 0 0 27.30923870047077 15.10500588768006 28.780063597139854
91 0 0 28.95811609792329 11.584032390861086 27.417141993315152
92 0 0 27.337547542834518 11.03863564235995 23.118602804593753
93 0 0 29.07189732913214 12.378641563719722 18.400524455528664
94 0 0 3.540229285842157 14.556923662344209 15.843955948902122
95 0 0 7.321878960364475 15.736255855406943 16.005662054792957
96 0 0 9.734440701310072 14.611964512364501 19.05264223764073
97 0 0 10.203039515448355 12.817219659587781 18.363762840193914
98 0 0 9.05919684410379 14.292324148886454 17.74376396048363
99 0 0 11.162998722879122 19.16367473929637 19.81369317875173
100 1 1 11.719300731297945 16.226956842506553 18.749189275824897
101 1 1 14.311010385339122 12.120025432638842 19.772971400995104
102 1 1 15.427886167787435 15.052527685943824 16.493616253545213
103 1 1 11.499500563265753 12.010536154692264 13.49461043335743
104 1 1 14.752402517759782 20.201126659288633 12.26714197178652
105 1 1 18.522633970709467 24.951800201615427 3.45592924891062
106 1 1 0.9609937673905896 2.591840125593104 22.90779713666249
107 1 1 9.476223743947978 15.923611908157447 15.510290938035292
108 1 1 17.859323696445145 19.72768426745436 15.838162918824963
109 1 1 17.667513683893198 17.281702329498838 5.911375014211468
110 1 1 10.221576433642149 10.202763686746312 29.09683134813124
111 1 1 3.0190037609832974 3.5041819187156493 7.576206981768927
112 1 1 11.854970706933587 25.30241424284822 15.590983322934711
113 1 1 3.1718356765228424 5.236605945699015 8.168677460955546
114 1 1 7.9352037308504615 8.614127773582421 26.283610909660197
115 1 1 17.63449907121333 9.888523453222247 1.351897869375855
116 1 1 10.089186225337007 10.660223579176822 2.4494642465188528
117 1 1 17.349556073577716 17.154507145300986 12.879376043791172
118 1 1 16.12181184387243 8.430795046851866 17.077226845297517
119 1 1 17.658755378326674 15.615175614527663 11.563273769014526
120 1 1 18.726150890363467 16.170339092184395 14.902719499985324
121 1 1 11.876093344200482 17.201108572793103 17.157460049990288
122 1 1 3.7173897207329643 23.28440219223795 24.15652540273002
123 1 1 11.776568130704797 14.456511201120476 18.41070579320739
124 1 1 23.114247513028506 7.399728939112975 8.208330211311216
125 1 1 20.332456428972815 18.111357034177136 17.27557716444282
126 1 1 21.829299674182934 22.266603576899065 24.387924980748743
127 1 1 14.365210802791257 16.384458419325274 19.75604157334741
128 1 1 10.94940391579961 6.87225086173217 19.06055905262612
129 1 1 19.55092933189232 13.47714321120687 15.302448859680672
130 1 1 14.254355325386989 18.935610737139516 18.814311372593373
131 1 1 14.7432465501801 17.714079284000054 12.746551607283749
132 1 1 15.362369018059946 14.813148404603226 19.672121976420755
133 1 1 26.053215335147982 13.337928874479447 15.123810303146358
134 1 1 18.358383578846563 11.749106962559564 14.39837474958945
135 1 1 15.15008259047193 9.881189057378068 18.726916015127042
136 1 1 15.891787238370899 14.118444533640023 17.928500368120584
137 1 1 14.51260233660552 14.550827407260535 13.889766877577596
138 1 1 12.6516670262282 5.7859325133038935 16.770324891558534
139 1 1 9.679778610234084 11.13180373243638 10.758092844163185
140 1 1 12.433690811943736 13.568861892172201 13.821493533111639
141 1 1 16.79609024899958 16.762857818506266 19.7656136972003
142 1 1 11.642661982534122 19.111560108890668 18.09949813532742
143 1 1 13.374821743862439 15.411878069646507 17.761005144291147
144 1 1 11.002300421785499 18.7857408491372 9.650067349690456
145 1 1 11.241817421954309 13.133009385240975 28.051011573927983
146 1 1 15.99606104275612 10.52432486565831 15.096471135849464
147 1 1 14.7200081489206 8.931140578802612 12.277337018656993
148 1 1 12.326160753472635 14.23547764485547 11.379158314196868
149 1 1 16.6386725145158 10.177283845962037 17.621075904051477
150 1 1 14.607490996262175 16.64919834491586 14.872529163270606
151 1 1 4.471371460632524 16.352693345066218 22.165956557000513
152 1 1 8.619290721418075 14.43250492940961 15.4398070603114
153 1 1 15.437261930331637 19.728329321288772 19.614986269151427
154 1 1 13.634067907731263 13.106407727614238 11.298650996401493
155 1 1 11.112006715447237 13.756398257750984 12.66265468249002
156 1 1 20.11805491450631 14.292208216094654 23.041891822393545
157 1 1 17.118632810457374 11.851762358646276 11.495920573532919
158 1 1 12.80468768724358 29.886144863766997 0.6102846713478933
159 1 1 20.73599110495258 29.467906070960414 9.082724880769748
160 1 1 1.0702945838779754 8.588772207866157 11.911023649417817
161 1 1 12.188181848806458 19.40782351782702 13.816501317442066
162 1 1 13.231517804618084 22.998619989632157 20.560304065319496
163 1 1 12.498845084861328 17.810034211625652 14.745155599984347
164 1 1 16.92982100067144 15.07422546216646 19.081763940787294
165 1 1 11.259320362851094 16.810462181264896 15.5021720698421
166 1 1 19.03732786425099 13.696621179844502 13.260931951143272
167 1 1 24.884635787200153 15.341905822150315 10.245525226727983
168 1 1 14.636837133282576 10.148495451348104 13.967673539729107
169 1 1 14.649953991747763 12.840043238678234 18.014416940964768
170 1 1 12.548330147317483 10.353292485006476 10.925973937186868
171 1 1 14.056028180120542 15.298833824693634 9.636365119107642
172 1 1 12.76355357933813 22.13030701465318 12.10033564053348
173 1 1 5.779913334352212 21.62018435510857 20.782508105038847
174 1 1 24.821543180985742 17.451209013541725 19.87069612747647
175 1 1 16.840572433478524 15.97242372539611 17.596159037638873
176 1 1 11.528951087502552 13.930390633339295 15.794025524942533
177 1 1 13.407007264607017 8.471915404538839 15.203867375476012
178 1 1 15.273845592559043 11.943514064764102 14.158216116519366
179 1 1 18.555222015730575 8.7831167004786 12.038407996672353
180 1 1 19.326621096753613 28.864402273835157 19.73646431377187
181 1 1 13.065130517644493 18.05513932120926 18.15307936038795
182 1 1 11.634659649609114 15.127161476308977 21.748759073961114
183 1 1 14.84943361764516 18.840711077137765 14.718835863978539
184 1 1 15.849354903962304 19.72719410816265 16.109804287091922
185 1 1 25.682731623784544 24.02816319827953 6.664520190493508
186 1 1 7.905198594339777 18.87480852474847 17.24342867441177
187 1 1 10.797391224056856 21.133282199265516 18.676989379198655
188 1 1 15.327678349580411 21.59858058816671 14.274483246692673
189 1 1 6.298805375726313 2.3611817757305475 7.552665023599973
190 1 1 14.838797584823658 9.109225866670407 15.898622413677687
191 1 1 13.868038818970827 13.093109379272402 14.9840130116096
192 1 1 10.637622512353298 12.916892986324214 9.292382237837987
193 1 1 14.997974556510316 13.529141711187217 9.43211912181738
194 1 1 13.385582838140445 17.628412546115765 9.218855744435654
195 1 1 10.267506204482494 15.083492884095207 16.779568958420494
196 1 1 12.983264783098678 18.730077200364136 16.424094030716553
197 1 1 12.938906055479443 13.175180217257292 18.14935390583542
198 1 1 18.56236631802237 16.040646793581946 17.504198029752242
199 1 1 9.945215457383576 15.764843549111129 11.099931097671279
