ITEM: TIMESTEP
74
ITEM: NUMBER OF ATOMS
200
ITEM: BOX BOUNDS pp pp pp
0 30.0
0 30.0
0 30.0
ITEM: ATOMS id mol type x y z
0 0 0 10.33752881792753 10.446608900226547 19.828642995226314
1 0 0 9.424197211707877 11.068017934794495 21.239855560528177
2 0 0 8.626277685566336 11.590467426016613 22.762617983499972
3 0 0 7.969222638784281 12.039833100963236 24.3788356054911
4 0 0 7.425296799317428 12.443690288118813 26.05362779030519
5 0 0 6.961772555391372 12.817164778557343 27.76481666901167
6 0 0 6.548084652156276 13.175422222898236 29.49743844207094
7 0 0 6.154139824006398 13.534633908463825 1.239951726835225
8 0 0 5.761403004179024 13.897341024802003 2.987482488957249
9 0 0 5.368634760740116 14.280262399848256 4.73610313895046
10 0 0 4.969963902604408 14.700895126440628 6.480044639616137
11 0 0 4.566387305229354 15.17325428143071 8.214821266362486
12 0 0 4.163443368768123 15.710293656456617 9.935994419034893
13 0 0 3.7654511187886555 16.310580646263098 11.64236798660185
14 0 0 3.359384829958495 16.83553863183088 13.379391178463248
15 0 0 2.944331376774257 17.31030533441989 15.129652063515415
16 0 0 2.518287790270591 17.84975012884865 16.862007137928117
17 0 0 2.067602720277627 18.452192906792558 18.570438914894652
18 0 0 1.5767437957513573 19.108357472044855 20.250639296096335
19 0 0 1.0308809397400034 19.811294477131668 21.8970703814484
20 0 0 0.4184592739762391 20.55564760543758 23.503454206074633
21 0 0 29.732851560300027 21.336886481097864 25.063761438638448
22 0 0 28.97290933158109 22.149532080856538 26.574071502173442
23 0 0 28.14253705990081 22.98358633053804 28.03568987254469
24 0 0 27.25035107871404 23.819159043518937 29.459841364089012
25 0 0 26.311253457430393 24.630030998942306 0.8676623321249284
26 0 0 25.31787715541339 25.638652706880062 2.109641374022482
27 0 0 24.30872778020369 26.830998351308068 3.1435586603859855
28 0 0 23.284412087363226 28.017831185697638 4.1633701554169145
29 0 0 22.25036984304801 29.22911909853888 5.137310461742301
30 0 0 21.218194906593105 0.4875995036400229 6.044010393344808
31 0 0 20.194525605659205 1.8006525119816252 6.87168724650224
32 0 0 19.180972251265075 3.166596554043047 7.613071999435948
33 0 0 18.17336920627965 4.57766311106694 8.263100320606332
34 0 0 17.16078932277818 6.021083743525628 8.817907763198654
35 0 0 16.124783090111727 7.478440461897078 9.275308999281433
36 0 0 15.038986883134408 8.92362679463442 9.636072309965742
37 0 0 13.880075621990537 10.32801312225087 9.9108737161566
38 0 0 12.771602979595436 11.781701385884519 9.672826957104503
39 0 0 11.648479899220314 13.232139982505368 9.47766513277442
40 0 0 10.428813352687474 14.090441051169993 10.577959369499963
41 0 0 9.52831193301398 13.959736100017349 12.198855633684614
42 0 0 9.394754293544185 13.310249087454327 13.976965096035677
43 0 0 10.813244829551541 12.173924299591828 14.735377293274654
44 0 0 12.685585085506062 11.699783032088826 14.84434687509967
45 0 0 14.563957189414 12.293716337751817 14.946285956782354
46 0 0 16.18760514059147 13.420853255530254 14.602433873676127
47 0 0 16.481835540301685 15.17538286570354 13.41573770049983
48 0 0 17.353006790166344 15.225169702435394 11.20230270426835
49 0 0 18.989412636682548 15.70281556024242 11.920597593589545
50 0 0 19.37508370051747 16.887397037379742 13.2419035020501
51 0 0 18.744386983104295 18.579378585129096 13.473063410616449
52 0 0 18.199744646689556 19.932806494911567 12.389822754271293
53 0 0 18.02712277203054 20.38092824090502 10.599489946312593
54 0 0 18.262225065657088 19.41024724529327 9.006772409865262
55 0 0 18.44333811424378 18.242628800503965 7.538195232579044
56 0 0 18.516735017033845 17.222059149618683 5.935357296271006
57 0 0 18.57003716691081 16.366315555260375 4.218787183661066
58 0 0 18.654409033851778 15.671836484466263 2.415314914737003
59 0 0 18.79693079642512 15.129678221166985 0.5506343947658874
60 0 0 19.009002082726802 14.725037339081679 28.648971397775828
61 0 0 19.293715221477843 14.438801354801038 26.730557113927365
62 0 0 19.65359998144728 14.251713110318208 24.811038695601212
63 0 0 20.098927559845585 14.14668350558566 22.907605464296132
64 0 0 20.641338964834436 14.113001249947777 21.034911576541173
65 0 0 20.675003641911175 14.5081352260116 19.11246253749821
66 0 0 20.212890704172004 15.561223698837331 17.567392648626015
67 0 0 19.7194838807896 16.69543332230379 16.0982838682747
68 0 0 19.33579996481224 18.577925339881325 15.887983703051983
69 0 0 19.06840407244604 20.45887764739084 16.114231366560688
70 0 0 18.633770032709528 22.244696459604658 16.6662314907419
71 0 0 18.187611366526546 23.954892782433475 17.442598117353604
72 0 0 17.78969392960846 25.670811411059727 18.26910069179578
73 0 0 17.447879414832293 27.43572887370177 19.05765712403782
74 0 0 17.160645714511876 29.2607462497457 19.772834682887712
75 0 0 16.930572727233994 1.14378027932593 20.401294597169606
76 0 0 16.762157453076675 3.080685088098353 20.936233648518257
77 0 0 16.66024041055444 5.063031260754135 21.373823483930057
78 0 0 16.628592531822736 7.081667119911435 21.71462654430822
79 0 0 16.66932196195973 9.12648226230248 21.963971287871047
80 0 0 16.782426643479837 11.18422357874293 22.131921166175687
81 0 0 16.96336677647102 13.242177238331033 22.23467676857322
82 0 0 17.241865742082815 15.23840856216606 21.646907198557162
83 0 0 17.793368155107764 16.731701160365795 20.32537191491623
84 0 0 19.112773813685394 17.330183246027776 18.794303518266002
85 0 0 20.500886399903813 17.781216421811525 17.31651980504315
86 0 0 21.327383119610165 17.783735880344235 15.359870813820713
87 0 0 22.047348134492232 17.741216463045994 13.401536186819946
88 0 0 22.764987017672727 17.654408263054755 11.465765506800008
89 0 0 23.487909993459095 17.524210564946628 9.559726410588658
90 0 0 24.253903569079316 17.33924556747955 7.702989125204701
91 0 0 25.082797663686645 17.106669689318576 5.909663892550047
92 0 0 25.971023448787307 16.851528653599075 4.178973094379591
93 0 0 26.913870029342267 16.59400107348807 2.5077598142934256
94 0 0 27.9103505551397 16.344725623848525 0.896332607992135
95 0 0 28.96136199387607 16.108655700811124 29.3473004143362
96 0 0 0.06850775291449578 15.888734829082503 27.864232430478435
97 0 0 1.2336412628638602 15.687695804593323 26.45138705569967
98 0 0 2.458795304764445 15.508790589608408 25.11404495092479
99 0 0 3.7316672311787076 15.350850337655007 23.84500634256396
100 1 1 16.28846886863413 15.396454279103985 15.513706020929988
101 1 1 17.4291227500377 17.05731615160743 14.20009638118827
102 1 1 19.107591939104108 18.68771766468666 10.909880785754012
103 1 1 21.108940475340955 21.226312596936 7.466953582677948
104 1 1 23.406200186148354 23.974739862889674 3.8812919557688836
105 1 1 25.841458875517706 26.72699775010031 0.2174295703041074
106 1 1 28.303351446358455 29.27964078171663 26.614408750742047
107 1 1 0.6777713807958781 1.5795840356953792 23.118635484147664
108 1 1 2.873319003121533 3.5245983277262476 19.80815182147325
109 1 1 4.814829783750799 5.041503189140431 16.734797837996535
110 1 1 6.448749804336692 6.092350146980846 13.922013964455726
111 1 1 7.7481737934842245 6.688219352380572 11.3740303230469
112 1 1 8.739779146184235 6.94012538041899 9.087993554187369
113 1 1 9.635759818930392 7.168051289911084 7.031805063715527
114 1 1 11.13961114508103 8.35697749477907 6.085857870288883
115 1 1 12.621025340519518 9.721707857368527 6.731563979785899
116 1 1 13.930198457529967 11.035439324943605 7.751484456437159
117 1 1 14.965766621059974 12.400234698457673 9.005812989686554
118 1 1 15.402198407468735 13.964890585801998 10.368500964802264
119 1 1 15.461928422059199 15.680592639243965 11.622065363428641
120 1 1 14.538103197139023 16.25552890279218 13.44691577669324
121 1 1 14.28889405025697 17.162012287789963 15.352952681625379
122 1 1 13.411149252232702 17.397696393112895 17.237855651124313
123 1 1 14.072979125291 15.83582508800335 18.431111300364165
124 1 1 16.061857056958452 15.407859088867784 17.981636295929306
125 1 1 17.9688157134513 15.205982659994671 18.811373912544116
126 1 1 19.42662536729803 15.65542593902249 20.245863020362147
127 1 1 18.44556808140007 13.90042389129767 20.754313318164037
128 1 1 16.544303798910647 13.26992861673808 20.20097322918223
129 1 1 15.685672659531923 15.161371796591903 20.21833178502761
130 1 1 15.719537004643515 17.16785728437785 19.631877074614824
131 1 1 16.483286649380773 17.853666142372514 17.81906309595054
132 1 1 17.748646458770615 16.5711907994732 16.776463998988763
133 1 1 18.24563417957986 14.546675273133268 16.46685555219786
134 1 1 17.92538284757252 12.488781692732408 16.333477741663373
135 1 1 16.29292053348857 11.717116837021246 17.395197793020582
136 1 1 14.930383555291254 11.793760132841163 19.021606720497708
137 1 1 12.484689132479177 11.363970430801473 18.9244484432019
138 1 1 11.457685212045075 11.372004919601126 17.037413986980532
139 1 1 10.558731583306859 13.22225206724776 16.533538739880914
140 1 1 10.60816579756187 14.70043417792277 14.970864176226574
141 1 1 12.42193934111771 15.200176989715969 13.473803585397217
142 1 1 12.709747359505679 15.329315443346156 9.980832268808108
143 1 1 13.019160149491137 14.996004413223208 6.585889665238775
144 1 1 13.235547771045724 14.409607455104227 3.15628354601081
145 1 1 13.399099818510523 13.667649402204637 29.781427357074218
146 1 1 13.524328981494145 12.886557086725478 26.54825887644018
147 1 1 13.607420661056656 12.211950867694785 23.516931853737987
148 1 1 13.617507676016327 11.891874624645673 20.69103349128725
149 1 1 13.669627886051167 12.158490245173505 17.524293407512303
150 1 1 12.529625545164308 13.869416715537067 17.66362504774827
151 1 1 11.617693968310078 15.62070378518513 16.811673229767234
152 1 1 11.434356543324032 16.642273973092927 14.847685388991883
153 1 1 11.670648558714765 16.547039969662947 12.292531225865305
154 1 1 13.607130033991591 14.801081514659925 11.90929393878032
155 1 1 15.601218689419452 13.588746964490989 12.732459277485297
156 1 1 18.34970903888622 12.18196922983514 13.194053388971646
157 1 1 21.249947541185072 11.970731605169439 13.230243891059049
158 1 1 24.245462767121673 12.109588769425166 13.168140753711878
159 1 1 27.290881056899057 12.59948099588015 13.092656942031189
160 1 1 0.34941462204513934 13.401847914032345 13.055392469572945
161 1 1 3.394776275237572 14.445059501836187 13.085019606726382
162 1 1 6.450799181750264 15.567396834496147 13.349899388616798
163 1 1 9.489091171145107 16.745295956804572 13.55723813855504
164 1 1 12.595711531645787 17.89325261013471 13.635238893802695
165 1 1 15.30468973453007 18.148875764309974 13.3366674406837
166 1 1 17.162218182266002 16.76059922590726 12.269885601669264
167 1 1 17.685539823092014 14.048915452760877 12.57256481841691
168 1 1 16.162776954270296 11.916009936375668 11.826695199334662
169 1 1 13.358493167960546 11.47073926061428 12.095256580018516
170 1 1 10.049449753378482 11.815351182888357 12.837648284776257
171 1 1 7.018019054182925 12.675746341754019 13.932244186242304
172 1 1 3.8662088898456677 13.147470413690312 14.947176720211962
173 1 1 0.611220632113025 13.252336061006266 15.637759857542786
174 1 1 27.427130002343308 12.812183518698554 16.21970171773347
175 1 1 24.46438431445282 11.801660457224328 16.701554277949512
176 1 1 21.879726924405716 10.233443124141289 17.057941842855765
177 1 1 19.82887558170464 8.170181656124546 17.258657484727095
178 1 1 18.443459768135188 5.738591110172172 17.294528695348628
179 1 1 17.804100769131782 3.1192101992463916 17.185295226256454
180 1 1 17.94260623312412 0.5175503396969205 16.964072859693673
181 1 1 18.863822156954335 28.15656432534818 16.65743993281028
182 1 1 20.525087626714516 26.283735418941642 16.28402574858978
183 1 1 22.773507317071623 25.11295981910033 15.867139163266994
184 1 1 25.37021999044411 24.719070454924925 15.433735634383769
185 1 1 28.09527773056699 25.04579458853624 15.001014422127014
186 1 1 0.7844514216598644 25.988951511759964 14.573423606465754
187 1 1 3.311439256840028 27.438359714733505 14.147486159876962
188 1 1 5.574819443149462 29.281104038320525 13.716713623276089
189 1 1 7.498876443432393 1.3971327347211233 13.275464383279227
190 1 1 9.039056162416891 3.6607075166596372 12.822095121419336
191 1 1 10.183429739669721 5.948756187858364 12.361586879019818
192 1 1 10.963693742256302 8.203078630752419 11.897828935001602
193 1 1 11.402500288358082 10.385343202642545 11.45372778960669
194 1 1 11.6317039515856 12.56393956302289 11.469012673103272
195 1 1 11.322150619079297 13.509986710732713 13.292135292822232
196 1 1 12.445632961077697 13.706552004616645 15.207249779987878
197 1 1 13.676929942283712 15.097597705995536 16.201497243138796
198 1 1 14.470901731823426 14.40607385336069 14.497791201921967
199 1 1 13.43707938041109 13.103818534434934 13.359798133828763
