ITEM: TIMESTEP
82
ITEM: NUMBER OF ATOMS
200
ITEM: BOX BOUNDS pp pp pp
0 30.0
0 30.0
0 30.0
ITEM: ATOMS id mol type x y z
0 0 0 10.10306254433896 10.605365302203738 20.177000561516774
1 0 0 9.271852976209468 11.164581614591354 21.6609966625542
2 0 0 8.530517814490349 11.668956499085917 23.214106089024416
3 0 0 7.910549975991718 12.109142207353308 24.84153961605588
4 0 0 7.3807781209237255 12.509444934018266 26.51382474587698
5 0 0 6.914489493087197 12.888471509291078 28.213021058300825
6 0 0 6.486874254098466 13.263446834524649 29.926455068592762
7 0 0 6.075754634247343 13.644754748795823 1.6457059164294396
8 0 0 5.673730742087892 14.038939905726693 3.3673445667516733
9 0 0 5.27832397726921 14.461630528581775 5.0868418114212215
10 0 0 4.885107950491521 14.927029616069657 6.798834304212211
11 0 0 4.491616498267131 15.446626141675441 8.49812073523483
12 0 0 4.09656406502463 16.031928226756676 10.17854344874654
13 0 0 3.6984462045752986 16.680497653771962 11.837832627156159
14 0 0 3.276516209457549 17.182654759104093 13.546516642571142
15 0 0 2.834984665213916 17.6273810616169 15.266324841201174
16 0 0 2.3707167828772473 18.13668122497322 16.964218821853713
17 0 0 1.8754891036264214 18.71149851719741 18.634272955985754
18 0 0 1.3412717248074215 19.3414361018282 20.274124514154423
19 0 0 0.7603776720310247 20.017162884709098 21.88145490062768
20 0 0 0.1268084125737166 20.728528412086753 23.45500483323266
21 0 0 29.437099696922882 21.46342295280021 24.995587729290047
22 0 0 28.69069664281175 22.207776964506174 26.50651831861827
23 0 0 27.889451321366742 22.94815648207277 27.992416495654034
24 0 0 27.0379304869801 23.678394622903507 29.456495319076264
25 0 0 26.155555108947887 24.410973311534484 0.9022373301469748
26 0 0 25.302679099221876 25.600765497840055 2.0378091551071424
27 0 0 24.294053602367402 26.803796970573035 3.020219462060135
28 0 0 23.279735716143936 28.014562227331112 3.9830466418508035
29 0 0 22.2752353430018 29.28019208516662 4.885341969408327
30 0 0 21.26466784779754 0.5764141502382372 5.737199817258145
31 0 0 20.241402764673353 1.9000674239624864 6.530863290794881
32 0 0 19.203997255771096 3.2527541594992315 7.254935184170635
33 0 0 18.148873874845336 4.6316686258158635 7.90019878832126
34 0 0 17.06861834084233 6.02775368224659 8.462264191128538
35 0 0 15.953304186107884 7.426651484992706 8.943395946010565
36 0 0 14.790698900537622 8.80960453505649 9.353536742477475
37 0 0 13.563529963172511 10.151172773526284 9.708017631465871
38 0 0 12.293936787334381 11.501456972459541 9.673409064212981
39 0 0 10.865846928460464 12.685128699657653 9.776127197063271
40 0 0 9.570780232386298 13.205521431734867 11.006781952167836
41 0 0 9.347244325093884 13.150569290031388 12.842342849761106
42 0 0 9.891981703661658 12.465656660327435 14.526295096796058
43 0 0 11.450629570182818 11.582919640092474 15.13968620876144
44 0 0 13.29790931364434 11.529843957665893 15.470883326330434
45 0 0 15.099397616896104 12.074695400706537 15.495641436100774
46 0 0 16.593939304855464 13.147661992445457 15.126709009127397
47 0 0 17.6471499371474 14.504711762465046 14.35106788372667
48 0 0 18.738046250333067 15.511244919268613 13.24620037965189
49 0 0 19.901988461448703 16.645507730875803 12.36943104801189
50 0 0 20.90028606360715 18.143074834143246 11.974486476312238
51 0 0 20.836232810092177 19.95623125567125 11.580865767248337
52 0 0 19.426720487511155 20.91882057317752 10.84315586037243
53 0 0 18.27223287911728 20.139891307948457 9.625815971412068
54 0 0 18.112089163392262 18.929787988411917 8.266515246413912
55 0 0 18.26204586329122 18.07682521806785 6.66137839199219
56 0 0 18.46688644511795 17.29248296914213 5.0282959970164045
57 0 0 18.665838082624365 16.588468002668083 3.3577372983767675
58 0 0 18.86660691703006 15.988703005693065 1.6454716248524321
59 0 0 19.096328532932507 15.498462225856159 29.899872569977127
60 0 0 19.374904326598365 15.112411428425608 28.132497989670714
61 0 0 19.717811003563437 14.822594780066968 26.355084041982362
62 0 0 20.140871938988013 14.62500764192506 24.57939254987583
63 0 0 20.66453201106209 14.530499044886046 22.819166612519627
64 0 0 21.303538602231168 14.577498956752875 21.092259747062965
65 0 0 21.37765455447085 15.048977319911112 19.300536687200687
66 0 0 20.464653706882572 15.899306125547525 17.93227409761192
67 0 0 19.63994034125606 17.146660654776465 16.821034064784207
68 0 0 19.20169099733579 18.96475566883789 16.907705047760523
69 0 0 18.851291675743774 20.788008673946 17.19100743449054
70 0 0 18.524296529634253 22.60786872158933 17.571183859927448
71 0 0 18.222725834458927 24.426504580476912 18.018116412781005
72 0 0 17.949107378993304 26.248385008725148 18.50465814145846
73 0 0 17.706052172495514 28.078402467182062 19.00715960575818
74 0 0 17.49875135215794 29.92104142611698 19.505833132854846
75 0 0 17.332745778565794 1.7798273347389462 19.98239210365986
76 0 0 17.211668346155893 3.6561079846380795 20.422504194790445
77 0 0 17.137317761455733 5.548997508427041 20.817032001268608
78 0 0 17.10959677139666 7.455829433190811 21.162344672071878
79 0 0 17.126668278956004 9.372840490611276 21.46031974778441
80 0 0 17.18554968414263 11.295847603904592 21.71818697342929
81 0 0 17.281244530686095 13.22085987452257 21.947751011247384
82 0 0 17.612273887281845 15.067865936750259 21.384103969602986
83 0 0 18.132480996069773 16.717216712128874 20.467103197178496
84 0 0 19.435873933417195 17.40096100459227 19.191993366117227
85 0 0 20.844939021219204 17.926419040007573 17.959365945064786
86 0 0 21.521670952849362 17.84405993842488 16.13690064748881
87 0 0 22.1643489053502 17.698589468043647 14.323932208233561
88 0 0 22.860808035623087 17.536588062096925 12.542545133860857
89 0 0 23.484359103194393 17.400367878875294 10.744468670037634
90 0 0 24.162647852989835 17.251676543161196 8.979316432416924
91 0 0 24.901970878940904 17.088009565361283 7.252746489526121
92 0 0 25.69599754821601 16.910121106691733 5.5650162289393235
93 0 0 26.5399652754807 16.719416985132007 3.916347905415813
94 0 0 27.432093445109956 16.518047122367282 2.3078889289457853
95 0 0 28.373617009607468 16.30918344963868 0.7421828735707813
96 0 0 29.367317886054472 16.09742485851224 29.22277136024859
97 0 0 0.41619243896058283 15.88850239564971 27.753720763237887
98 0 0 1.5235343247263358 15.6884134206709 26.34005731353139
99 0 0 2.6671061977164467 15.496884388937556 24.967139647596667
100 1 1 18.275363521985245 17.9642879665977 13.062723667397023
101 1 1 19.136221514712435 18.93837549771531 11.13945198663777
102 1 1 20.59655094912523 20.536397241129187 8.896524610298625
103 1 1 22.236468476836922 22.37227661358451 6.244433017768518
104 1 1 24.041231075519665 24.38008663446383 3.3068880872127906
105 1 1 26.00058159927596 26.515985938978655 0.17388315690209957
106 1 1 28.014370241012987 28.552993330593072 27.040787789711608
107 1 1 0.015989121136994498 0.47854845121866707 23.93226527632454
108 1 1 1.937826330062059 2.212090176948349 20.915787480353757
109 1 1 3.724362194157073 3.697757012340826 18.042680744136877
110 1 1 5.339844022808484 4.910702795932092 15.352906015857759
111 1 1 6.774889269706002 5.862994784761573 12.88220606935238
112 1 1 8.056927434337707 6.616504979470104 10.674790710934355
113 1 1 9.298167100754293 7.312648744692559 8.746086250414168
114 1 1 10.704350243836181 8.208778752499821 7.272337343850111
115 1 1 12.347572937542527 9.551616996963526 6.958078579085913
116 1 1 13.767403032115629 10.982968207625719 7.598891864820605
117 1 1 14.768369108228844 12.329037432725432 8.863707944927873
118 1 1 14.862749772123582 14.189039271676 9.817898005701956
119 1 1 14.637468125192703 15.917659583497812 11.029159461805998
120 1 1 14.637925483434039 15.865731839065427 13.301868220293018
121 1 1 14.246598926432053 16.947127765024874 15.015125122822596
122 1 1 13.629744142464597 17.30813806364102 16.954316499361774
123 1 1 14.091171681862589 15.941021664451526 18.43833329843319
124 1 1 15.982931946157326 15.251186317378599 17.945170430801547
125 1 1 17.8691835752939 15.202587053233435 18.816752945514352
126 1 1 19.458537477626717 15.241723206131688 20.145238891052465
127 1 1 18.645607477866015 13.358787723065898 20.32391728717396
128 1 1 16.604430840866424 13.426493551565219 19.902777947217878
129 1 1 15.546527005055577 15.165045429187552 20.337112435821325
130 1 1 15.781133310779255 17.1401171661006 19.734278323581076
131 1 1 16.45713507683348 17.827928353376862 17.89945607023187
132 1 1 17.60842235823311 16.558723194923118 16.733944404277604
133 1 1 18.183482458453923 14.584103634857689 16.432209680961027
134 1 1 17.820826955618823 12.553500428601586 16.683086306200536
135 1 1 16.181833131729586 11.748028332942049 17.66708073943408
136 1 1 14.760447455603531 11.032969928592633 18.99872504512135
137 1 1 12.701198494943817 10.932301271768038 18.708834326839277
138 1 1 11.435668279285217 11.997467652701648 17.401797646171097
139 1 1 10.545935637460259 13.488300079316053 16.120295872666738
140 1 1 10.571348594079119 14.431211010523374 13.991491019681112
141 1 1 11.321894241787367 14.37647186280605 11.583899377305084
142 1 1 12.152567182331882 14.504193615922292 9.041866626914338
143 1 1 12.687047330320086 14.384295147527512 6.239245961340716
144 1 1 13.025652384790503 14.084920988024358 3.2845598172502632
145 1 1 13.245431467111192 13.686883875267345 0.30337966677425343
146 1 1 13.389471499774258 13.292587592882525 27.410447464018457
147 1 1 13.466768328295874 13.011774698844587 24.696739824893918
148 1 1 13.437048246242393 12.974820441430495 22.196812292779267
149 1 1 13.122401023173925 13.365325393075741 19.920317294149328
150 1 1 12.220419701687495 14.315967086104674 18.10892200204935
151 1 1 11.566866849085804 15.559227619535392 16.41173388835927
152 1 1 12.058005067646706 16.072305952730524 14.396084150229834
153 1 1 12.688673155987406 15.879944972049291 12.376901029431599
154 1 1 14.05726409718601 14.20135958233296 12.20612338686327
155 1 1 16.26107550094614 13.508923046131505 13.132759685861933
156 1 1 18.847200410897404 13.090810448074922 13.065374916720682
157 1 1 21.617731186202217 12.864486005536998 13.099555284174322
158 1 1 24.518654757990582 12.92638518876525 13.129385770790488
159 1 1 27.4765558490876 13.300282491834908 13.148480146853034
160 1 1 0.4427355114617019 13.931795070018797 13.173492212841037
161 1 1 3.381233420861666 14.7528005386808 13.208933323342137
162 1 1 6.240543456826008 15.753720881808523 13.21899081812712
163 1 1 8.969547536406457 16.817174678864447 13.16892374907146
164 1 1 11.54188302473034 17.780990106640367 12.956355480139253
165 1 1 14.117524156155303 17.77154876623557 12.577168141009468
166 1 1 16.31828893141843 16.40094469138991 12.20452722021335
167 1 1 16.46244014860278 14.279130276874602 11.254683938523046
168 1 1 14.84441176167382 12.326238332439576 11.632993766125104
169 1 1 12.674434666531866 11.133714073447393 12.488180814126776
170 1 1 9.562642638085352 11.117632713482012 13.161368836287409
171 1 1 6.712445525842767 11.772203760342704 13.874497850516216
172 1 1 3.8253986005288825 12.12100156427238 14.616414117256591
173 1 1 0.9414252415719857 12.093452463164546 15.305097203754439
174 1 1 28.136504136818946 11.650134643919769 15.896293341798858
175 1 1 25.513678934576223 10.766250407584549 16.37042576720886
176 1 1 23.192814546494862 9.445147961247507 16.719675374280524
177 1 1 21.30018952697391 7.734560727058663 16.93981598011736
178 1 1 19.927816177867776 5.678529170272073 17.030058245726348
179 1 1 19.205295234022376 3.410668237722213 16.988390711761
180 1 1 19.222378741968946 1.0936984945279247 16.821527822427225
181 1 1 20.030888107250632 28.967497691236982 16.544847609880385
182 1 1 21.56225309983909 27.30571877007163 16.187793426975972
183 1 1 23.605441376529246 26.29691365285661 15.788027239826002
184 1 1 25.914292813595914 25.96811526813811 15.374148248369798
185 1 1 28.303663222292503 26.24701212402372 14.958976125317744
186 1 1 0.6318435212371292 27.02713662438508 14.54867693815188
187 1 1 2.8381907030872875 28.21581152479756 14.138269145934236
188 1 1 4.855590171969203 29.723185322515786 13.726856635901203
189 1 1 6.622720168683313 1.451873588591851 13.31669673030289
190 1 1 8.132127950661499 3.3519233952798912 12.901386688466296
191 1 1 9.346192733347504 5.341418014876946 12.485925659624886
192 1 1 10.25432852194041 7.39551322220308 12.074185555984336
193 1 1 10.810032958135254 9.507577993664752 11.710935872408468
194 1 1 10.895364851498627 11.671083865824675 11.576158552587446
195 1 1 11.617987042319173 12.710065362340977 13.347949968512157
196 1 1 12.495120440130867 13.638949492066759 15.083313388508348
197 1 1 13.660924247139064 14.865262790968831 16.326464011986516
198 1 1 14.851505716388546 14.253541714781857 14.812747627773938
199 1 1 14.004597426806093 12.688666950090862 13.763343955523016
