ITEM: TIMESTEP
89
ITEM: NUMBER OF ATOMS
200
ITEM: BOX BOUNDS pp pp pp
0 30.0
0 30.0
0 30.0
ITEM: ATOMS id mol type x y z
0 0 0 9.91716688902455 10.728515245495286 20.468381475206627
1 0 0 9.16131429027327 11.243297854147942 22.006479160920104
2 0 0 8.451506603033183 11.733587907472247 23.5763686181722
3 0 0 7.853944087827868 12.167228861101945 25.210583218596533
4 0 0 7.333832238891428 12.569017349073627 26.881110937357775
5 0 0 6.867612774200963 12.958614393701689 28.572348670469896
6 0 0 6.432661827568424 13.35121901922026 0.27331811063925243
7 0 0 6.013392153932017 13.75371772951182 1.9780023902256005
8 0 0 5.606183392080565 14.17564136718993 3.6829547517483308
9 0 0 5.2076611016042635 14.632666511016046 5.383038860578994
10 0 0 4.813384044485643 15.139607291854787 7.072007687961802
11 0 0 4.421460732344763 15.709739515554377 8.74332203463584
12 0 0 4.032339088104266 16.351247921881193 10.391302337898324
13 0 0 3.643671717781767 17.03313426721455 12.025031106207996
14 0 0 3.1799388789859293 17.447990124942766 13.730728930606082
15 0 0 2.705780415568646 17.903364044569518 15.42478828876311
16 0 0 2.2111653530486364 18.41077004920501 17.09978541466098
17 0 0 1.6840523688062106 18.965904918389 18.751103228232736
18 0 0 1.1186275463113649 19.56909172160565 20.37430915169463
19 0 0 0.511639306718737 20.213617068503346 21.96786270435418
20 0 0 29.86101912072024 20.890993779744548 23.531668759805076
21 0 0 29.17108099123999 21.59777998387475 25.066766685082754
22 0 0 28.460596187090097 22.335827607031025 26.578969342215718
23 0 0 27.758245157029744 23.10971410336726 28.078186557579194
24 0 0 27.123053737254 23.95221036212666 29.571615420673684
25 0 0 26.662637321506125 24.916025967319055 1.0570611656453068
26 0 0 26.089472339391133 26.392261290796377 1.9965492876620605
27 0 0 24.754184031285128 27.285483078218537 2.8822363680929706
28 0 0 23.531086512165544 28.32568720961938 3.7669201103013856
29 0 0 22.389994176606997 29.46882483309122 4.631924160695576
30 0 0 21.30077412547158 0.68692312842291 5.459288814323693
31 0 0 20.23650651078213 1.9604435107004388 6.232443731544125
32 0 0 19.172999600148334 3.2700609412634254 6.942708418244236
33 0 0 18.09125403690772 4.597653981076782 7.588056984191085
34 0 0 16.97587177892164 5.9249505110429075 8.173069798316742
35 0 0 15.813032117566518 7.231714286668136 8.709621498948438
36 0 0 14.59094686135064 8.495302783841693 9.217353472089258
37 0 0 13.316070903542995 9.705945238009592 9.725031024828729
38 0 0 12.043546823196994 11.027916280710219 9.72392732041216
39 0 0 10.738980121389664 12.316635088701585 9.762775403280452
40 0 0 9.591861678592277 12.994432327892167 11.037190902216203
41 0 0 9.545145649579139 12.738484561111532 12.861107863185353
42 0 0 10.55565716082815 12.087407025272013 14.293374077137557
43 0 0 11.887359447606078 11.229678873278818 15.23112637241026
44 0 0 13.565705316694764 11.43506131399473 15.95810967744048
45 0 0 15.38375999126225 11.747128682463984 16.03684163402591
46 0 0 16.842635562482588 12.571633958297804 15.243873590509521
47 0 0 17.487961521597295 14.240165103834789 14.798187202973867
48 0 0 18.461222988962835 15.61151079833257 14.072090695877634
49 0 0 19.350396766297596 17.04709832692429 13.382514748207516
50 0 0 19.99002051339754 18.604063216016737 12.69977156396539
51 0 0 20.16862420267383 20.26728951862432 12.00554212780254
52 0 0 19.493755602727134 21.366944437147332 10.733354674586339
53 0 0 18.576342116185593 21.071511914385322 9.193042145288567
54 0 0 18.479042383387075 20.04562380521243 7.698530903246255
55 0 0 18.602685753072922 18.946368293566493 6.261292437345137
56 0 0 18.69423280800521 17.892346894857734 4.790664565699867
57 0 0 18.811692228473394 17.02803060588793 3.2035142315970293
58 0 0 19.001820990803875 16.356351513608193 1.5322888158022354
59 0 0 19.26469845503177 15.84051221620824 29.81625305389143
60 0 0 19.59399974107275 15.457072139624312 28.077489836867393
61 0 0 19.987937295337147 15.209303763709809 26.327709364445685
62 0 0 20.439956909667266 15.125590953176065 24.5761812416168
63 0 0 20.91899117050701 15.252996529036947 22.833862726678166
64 0 0 21.348171324561388 15.615983651316043 21.110675621428737
65 0 0 21.338293644086146 15.971049613308214 19.329075237205032
66 0 0 20.142995494653377 16.323338983061536 17.996894109304147
67 0 0 19.327918865463445 17.88992019598509 17.539380990638826
68 0 0 19.06528302181329 19.689812196634826 17.59828162204306
69 0 0 18.796364116073047 21.484605084302824 17.77353340344927
70 0 0 18.532504050415646 23.27229177493905 18.040304626199276
71 0 0 18.285436451907053 25.055371875507237 18.36876727107424
72 0 0 18.062518656809818 26.837519472056798 18.734174413822345
73 0 0 17.86738141544084 28.621831102648745 19.11798757314293
74 0 0 17.703174853366466 0.4104675430868139 19.50707523406451
75 0 0 17.57297618249575 2.204954628332684 19.891196259420244
76 0 0 17.479015050450947 4.005866890585999 20.263036506639278
77 0 0 17.423300607316737 5.812702820515416 20.618630805607207
78 0 0 17.408427896438234 7.624211409470535 20.957278187273708
79 0 0 17.4383510777342 9.438654671374435 21.28146714758589
80 0 0 17.520338262525936 11.25311371193016 21.597357235649923
81 0 0 17.666219137414373 13.063583580416566 21.91206799846407
82 0 0 18.052159327195653 14.823121925856965 21.514767224467583
83 0 0 18.74983634525438 16.428437081258586 20.91632623647674
84 0 0 19.85201312539615 17.391995912245886 19.792464451720647
85 0 0 21.0845855027574 17.971509535911785 18.533232942132543
86 0 0 21.653798054893393 17.827141422723027 16.78332773149009
87 0 0 22.22176785432254 17.682867889491547 15.037679122066994
88 0 0 22.81206382488638 17.54363785740177 13.302662963614301
89 0 0 23.437836817866728 17.403513564955567 11.584211638296189
90 0 0 24.095655282614967 17.25929819447678 9.882296954278093
91 0 0 24.786199765447112 17.107891912604018 8.19845399019489
92 0 0 25.51608087533171 16.947612542439046 6.536746162750265
93 0 0 26.29039818496447 16.777464653958035 4.900957939293893
94 0 0 27.112350660382685 16.597631490213622 3.2944442067634707
95 0 0 27.98460086544056 16.409256947490995 1.7206898341089514
96 0 0 28.908989496748788 16.214145451342546 0.18298447233070866
97 0 0 29.88713605045076 16.014868848087747 28.684695516677895
98 0 0 0.9239492529959651 15.814099470039952 27.231918023449513
99 0 0 1.9742770296408543 15.613577853693776 25.794117424421763
100 1 1 19.68778483317176 19.328027959289372 9.882465898555871
101 1 1 20.85593718974859 20.498741277054044 8.405493386747585
102 1 1 21.971323040338795 21.792566287065707 6.610269124567281
103 1 1 23.23078676472448 23.260268060550594 4.521397945646183
104 1 1 24.638073869147696 24.841905017384025 2.1702567801034265
105 1 1 26.257382623996815 26.55368036617765 29.62849749631821
106 1 1 27.955070898337613 28.205546125791557 27.02690574104367
107 1 1 29.656203778450966 29.804718867351745 24.37182467828477
108 1 1 1.3259714918006187 1.3135349570946648 21.724954410664655
109 1 1 2.9335331926364017 2.706357953329502 19.140862197286744
110 1 1 4.450540139020837 3.974657825761218 16.665894608054973
111 1 1 5.852607500951543 5.135081588678456 14.341314369258983
112 1 1 7.127614169751559 6.223235843834199 12.199866672942278
113 1 1 8.566361687666213 7.091436785313689 10.350594073845825
114 1 1 10.104489875333403 8.05632320626159 8.911682423973325
115 1 1 11.676186331911456 9.241852103060335 7.914415481908904
116 1 1 13.220208005402137 10.720346104321601 7.71125793488327
117 1 1 14.235926062424358 12.332847005506899 8.624492371606015
118 1 1 13.883045453506794 14.24435005552733 9.433218691216823
119 1 1 13.526981337600569 15.097203369961509 11.361964319837831
120 1 1 14.596529925249758 16.176321167711485 13.169545810582283
121 1 1 14.380540270600338 17.03901761474414 15.064316545789008
122 1 1 13.6063753750628 17.348422062690105 16.97029455435785
123 1 1 14.149903963598616 15.98470489845542 18.431733379279994
124 1 1 15.9636597536014 15.101806833704309 17.96169619099423
125 1 1 17.777137550806284 15.376761446590576 18.927080505700328
126 1 1 19.554169954096025 14.748823142578766 19.78725782859029
127 1 1 18.534564445973995 12.961886285165273 19.86144371666975
128 1 1 16.514250364725793 13.415292834540654 19.825444142912698
129 1 1 15.578635358194724 15.160081906799661 20.4309811143332
130 1 1 15.92489953587666 17.099336288082508 19.794659167585625
131 1 1 16.50527395945899 17.701504408906974 17.90107731160354
132 1 1 17.541856554838656 16.474165625457807 16.59396549333469
133 1 1 18.30624007148259 14.54998078352676 16.725808434807018
134 1 1 17.996223061320677 12.546033818639502 17.16388725903971
135 1 1 16.293603235378754 11.697687168200114 18.003789567779
136 1 1 14.40072104697601 11.171231852654953 18.70362985340709
137 1 1 12.463893518038441 11.64476830700378 18.04562596339568
138 1 1 11.283688513983781 12.86436317743959 16.754321937755044
139 1 1 10.528768305085903 14.05557218191503 15.089217618105137
140 1 1 10.60514988816574 14.610827553265093 12.90273898252745
141 1 1 11.272655660658382 14.47834424940162 10.614562491488284
142 1 1 11.801223822913943 14.288964469612267 8.19638567044349
143 1 1 12.302754148582448 14.107556065425314 5.743727823508734
144 1 1 12.683322095153603 13.922892702087658 3.2242893631980216
145 1 1 12.95323913182047 13.7389208833432 0.7077922196865902
146 1 1 13.109600261903811 13.582450934384289 28.22559042838825
147 1 1 13.14327174566269 13.50099219074755 25.78638538135702
148 1 1 13.03271913854091 13.561860294298132 23.426799602011226
149 1 1 12.74905223521328 13.843236720722516 21.175436999161494
150 1 1 12.28978316161903 14.434544573255584 19.079184969937273
151 1 1 11.756913116735758 15.380054430146851 17.188530541907515
152 1 1 12.119289508197049 15.774779935450438 15.101791000368893
153 1 1 13.015968093806746 14.822173051078503 13.432653550723849
154 1 1 15.088696544707433 13.992148907946746 13.086290456188221
155 1 1 17.375040583010346 13.488159108268881 12.856319023722603
156 1 1 19.828712618993904 13.352972958228548 12.99773706923563
157 1 1 22.366992180710586 13.389508577817617 13.079088403982853
158 1 1 24.99253066619398 13.584160275919347 13.120352562854897
159 1 1 27.668835494645794 13.92932383400054 13.13973989926096
160 1 1 0.3575103426918405 14.410011156796934 13.139318339283241
161 1 1 3.0213731503805112 14.99127752916911 13.107794897235323
162 1 1 5.629907240846823 15.645119355195119 13.005934639380849
163 1 1 8.156107901583038 16.27955933036989 12.818645785632445
164 1 1 10.56528144247588 16.86520412033838 12.4842502763694
165 1 1 12.89882413585386 17.119069634017794 11.9396740761888
166 1 1 15.10270912424522 16.41397371223667 11.121078843208185
167 1 1 15.377863165988538 14.081890413337995 11.011528293150747
168 1 1 13.814683560328303 12.324173006023768 11.787211272112623
169 1 1 12.064541447952639 10.76563665656964 12.931793774180786
170 1 1 9.300124243620322 10.705689556069247 13.440374492242727
171 1 1 6.677979366721328 11.019122457395003 13.9460493247475
172 1 1 4.050936302258506 11.171908052754828 14.501452956934227
173 1 1 1.4642417288148122 11.076651221354592 15.054261360525542
174 1 1 28.984343943467252 10.686905027100932 15.565202506391998
175 1 1 26.64821640723376 9.969999516192146 16.012466747692088
176 1 1 24.53370440463047 8.913612092491467 16.374083606839697
177 1 1 22.715451407006896 7.513198445910058 16.635833596102763
178 1 1 21.301093476633707 5.780295250702753 16.78360365035522
179 1 1 20.43344849496731 3.7678104803950414 16.8039672643127
180 1 1 20.28199622907698 1.6169412242025945 16.686694167250483
181 1 1 20.96302728944168 29.600749440581392 16.437606199567295
182 1 1 22.39871470069362 28.052920029637722 16.092036737335125
183 1 1 24.312643943727924 27.162348527701162 15.700800494073482
184 1 1 26.422388746336033 26.906698545532272 15.29966177962688
185 1 1 28.55284458040088 27.17263525462715 14.902708455070906
186 1 1 0.6152660722557505 27.849590822950837 14.512077310421702
187 1 1 2.563910576374019 28.85296438764971 14.126076624331176
188 1 1 4.3714896444719535 0.11925803774144947 13.744149718820752
189 1 1 6.023083549834506 1.5951535266572947 13.37214477398316
190 1 1 7.52565807519926 3.225088560736201 13.027241779133439
191 1 1 8.92474359707699 4.94006516891559 12.727147039721821
192 1 1 9.731808321905339 6.97926312084756 12.343492774393752
193 1 1 10.292562688747397 9.05591924095532 11.839753650572277
194 1 1 10.562353776191808 11.212481464151196 11.563669161720759
195 1 1 11.729501593865356 12.793640175356055 12.655183918616027
196 1 1 12.581254500552872 13.146923655155502 14.636261153529631
197 1 1 13.452178657696374 14.228280894669739 16.230642804809115
198 1 1 15.144754178399054 13.762884155226576 15.218621262087053
199 1 1 14.602840109998352 12.040777577061762 14.134683810057941
