ITEM: TIMESTEP
92
ITEM: NUMBER OF ATOMS
200
ITEM: BOX BOUNDS pp pp pp
0 30.0
0 30.0
0 30.0
ITEM: ATOMS id mol type x y z
0 0 0 9.840908667672299 10.778555973206853 20.590636996036935
1 0 0 9.118423345838428 11.27529415202412 22.150252625166104
2 0 0 8.418544580849751 11.760525204200658 23.72544772960605
3 0 0 7.828934770616099 12.192037476279731 25.361937650665094
4 0 0 7.312743180215858 12.59572124489782 27.03166723475812
5 0 0 6.846841469658441 12.99109013934223 28.719729614827894
6 0 0 6.409351108261662 13.391651475524709 0.41577926646798885
7 0 0 5.987346695026328 13.803597342887493 2.11464854194591
8 0 0 5.578285571592388 14.23790540269727 3.812763742429341
9 0 0 5.178871316462976 14.710520430506062 5.504639687620946
10 0 0 4.7851013348674805 15.234961871376978 7.184280621918883
11 0 0 4.395477586437718 15.820006651856415 8.846529795040999
12 0 0 4.008408361589391 16.46995783707506 10.48694076119802
13 0 0 3.599211760523919 17.171437570136092 12.102447870600557
14 0 0 3.1418010757184014 17.55483744539642 13.811307273399992
15 0 0 2.65175445473147 18.000122494436255 15.49721545846481
16 0 0 2.141106840330718 18.505115601208125 17.161281562893752
17 0 0 1.6025038682469537 19.060077463186342 18.801629329109808
18 0 0 1.0291772570450906 19.65824976223125 20.416136506966645
19 0 0 0.41817278990976403 20.295449655822964 22.0031769918143
20 0 0 29.77493054594205 20.97099485982433 23.562930773764947
21 0 0 29.11734050505023 21.6859759677075 25.100351693613774
22 0 0 28.470869226023396 22.44619605846383 26.622210387301102
23 0 0 27.88280556700272 23.28053708416466 28.130497398304623
24 0 0 27.424668526105293 24.231714492478932 29.616159309349463
25 0 0 27.147074785141758 25.341417057963877 1.0376060761151522
26 0 0 26.381330007900786 26.704978809479137 1.9919872218967232
27 0 0 25.005660058147583 27.54478760468479 2.8562755158313213
28 0 0 23.715435040763648 28.515201415646633 3.715643244029065
29 0 0 22.507898512155975 29.604491208293407 4.553414054099499
30 0 0 21.361811094681226 0.7828509232327293 5.357202609307975
31 0 0 20.249294754615608 2.022374966127316 6.116312670776362
32 0 0 19.145682630024133 3.2998493840236915 6.8246489965576425
33 0 0 18.030585789243602 4.595196580923526 7.480968293082887
34 0 0 16.888038810842705 5.889274588189121 8.092353646439316
35 0 0 15.715230413342478 7.166774104679376 8.682877092376621
36 0 0 14.521224518108271 8.4230861018011 9.277715617013968
37 0 0 13.312640375389512 9.650788709927642 9.903155486988062
38 0 0 12.103914929788944 11.031239382237152 10.013072187493703
39 0 0 10.796870122839477 12.319856500688758 10.07147948654245
40 0 0 9.611264261226532 12.892731072173937 11.367758642031461
41 0 0 9.507942661914223 12.64611438456966 13.197233476282257
42 0 0 10.432722374962397 11.885919500820082 14.628160979185084
43 0 0 11.765734401191564 10.995425804344872 15.542377518290158
44 0 0 13.57578108216215 10.980990931186932 15.833175732371341
45 0 0 15.389754275834704 11.17592240983134 15.997059716390046
46 0 0 16.833467929481944 12.092285847037028 15.339147973255434
47 0 0 17.431744452140055 13.788560603010332 15.024834596458998
48 0 0 18.12084127770061 15.379972742311645 14.451957893626123
49 0 0 18.86210380646373 16.800937811791744 13.603572903336442
50 0 0 19.433640442132074 18.323395535273825 12.816814362700168
51 0 0 19.591282108591756 19.867218748269167 11.90369875867347
52 0 0 19.10792388050326 21.114783968960666 10.705655908681377
53 0 0 18.433278930277318 21.16540755473886 9.04389476169927
54 0 0 18.397598602358748 20.143581497645897 7.568635263161716
55 0 0 18.585457143977155 19.01205588085726 6.188331866890821
56 0 0 18.718593695781294 18.03659091064087 4.6865175454598695
57 0 0 18.87251449237963 17.186843076829593 3.110633438676496
58 0 0 19.0716026413278 16.493919245966083 1.4636395636578157
59 0 0 19.333731813221235 15.963513031313134 29.76511400846873
60 0 0 19.662498442527525 15.58782950200859 28.036262840395555
61 0 0 20.04906157981622 15.371764393637198 26.29119852516658
62 0 0 20.47053135809296 15.335399481119936 24.540189118913563
63 0 0 20.885315430063017 15.48839448722592 22.792733747324807
64 0 0 21.25959304348296 15.75043007418722 21.048201337220338
65 0 0 21.276762485476652 16.00762448883784 19.261351782136867
66 0 0 20.025915046322233 16.483721411943666 18.042302825197403
67 0 0 19.247578422673975 18.07650465111353 17.6688620109743
68 0 0 19.01013657696645 19.867997710850716 17.75980290417408
69 0 0 18.773114065118502 21.65583748984268 17.92467934986332
70 0 0 18.532192011899323 23.43642224107037 18.16486309195069
71 0 0 18.303095851051925 25.211462466341686 18.462975474733778
72 0 0 18.095115752398286 26.983807978589113 18.798674974473368
73 0 0 17.912318466961896 28.756038932851226 19.15532382859759
74 0 0 17.75829777550551 0.5302135359765431 19.521257171611825
75 0 0 17.63696744302491 2.3079502908708927 19.88742087475124
76 0 0 17.551609380276847 4.0899558794152835 20.247171112223594
77 0 0 17.505578592277395 5.875968406804899 20.59727110600738
78 0 0 17.503858463026585 7.664787008264746 20.937968091741944
79 0 0 17.55531299799838 9.45415918225502 21.27244549005487
80 0 0 17.674788803346672 11.24036781489731 21.607177392997155
81 0 0 17.868164618266697 13.021763150552507 21.933807036502696
82 0 0 18.289092877541126 14.765068021524248 21.61900925955765
83 0 0 18.96944259329958 16.344598980087074 21.012406144138826
84 0 0 19.93738899065769 17.48180693397817 19.967936840072934
85 0 0 21.09826836530658 18.08957061523095 18.693497212631478
86 0 0 21.659991190965172 17.908273055650373 16.96894900984476
87 0 0 22.220647130848 17.727386794845316 15.247102599434317
88 0 0 22.802421083758617 17.564005512415427 13.532673651843664
89 0 0 23.412767207346867 17.4145397521641 11.829213386367146
90 0 0 24.057357044614328 17.26839138858758 10.140504997667296
91 0 0 24.738493376107776 17.117909210978716 8.46924497794411
92 0 0 25.45743619597539 16.960270277032972 6.8173705814819705
93 0 0 26.217343129108468 16.79419898722267 5.187591148612629
94 0 0 27.022303088627115 16.61917523470073 3.5834550850872025
95 0 0 27.87570125468401 16.435684267935887 2.008521453092862
96 0 0 28.780272296206387 16.245015074537086 0.4663372801793543
97 0 0 29.73904932432025 16.04902141813933 28.96106707050611
98 0 0 0.7578662685496009 15.849140827265918 27.499468490305635
99 0 0 1.7757048375901614 15.649516088452486 26.040312776691554
100 1 1 20.540681548385276 19.938995723206826 8.840183341863565
101 1 1 21.45988714772887 21.184151510748798 7.318997716754192
102 1 1 22.51930627246774 22.41362185674616 5.622532205533254
103 1 1 23.682475461358596 23.71189496071795 3.7061277199876885
104 1 1 24.954033205934785 25.108116506349226 1.556092798391528
105 1 1 26.43175308289643 26.630527777444915 29.269768061611366
106 1 1 27.99025996660253 28.138468927239856 26.88517817152089
107 1 1 29.569565790137897 29.619913359824466 24.431182897589032
108 1 1 1.1344353929498583 1.0457508234560395 21.962242825442587
109 1 1 2.6547817600332433 2.397437427284013 19.527903530545142
110 1 1 4.105142209338673 3.6680302983664568 17.17297107940019
111 1 1 5.466616253213869 4.86171997037464 14.938451325501642
112 1 1 6.731042341372409 5.982963429161655 12.857490882858299
113 1 1 8.083820966882952 6.94106005374175 10.986083599288987
114 1 1 9.69253508387064 7.947501938804692 9.58406851810346
115 1 1 11.279905877063559 9.115001134959627 8.502435470038987
116 1 1 12.798284734679298 10.571002877443814 7.943244809072712
117 1 1 13.781242426676215 12.341994617607726 8.610995878238358
118 1 1 13.40102163190139 14.136400890129362 9.677764378638566
119 1 1 13.071880575879101 14.775608148647201 11.765904164212719
120 1 1 14.275157886015217 16.269681372632345 12.872850376058318
121 1 1 14.349365608421094 16.926709872871488 14.86356288197826
122 1 1 13.697120139305339 17.28060712070181 16.81272722765095
123 1 1 14.156513292859652 16.009150694327325 18.385180766195177
124 1 1 15.973719667823255 15.098116900899443 17.994028089339785
125 1 1 17.73001033129533 15.441677362165773 19.03823579861912
126 1 1 19.53464619276787 14.608399892895163 19.623108430929864
127 1 1 18.485008889413653 12.836055796945598 19.733151982275206
128 1 1 16.506436962266626 13.425637372671744 19.86791243424498
129 1 1 15.57139438483238 15.176091458469857 20.460198830906098
130 1 1 15.930768071471997 17.098252206412177 19.783069184105504
131 1 1 16.525994433634835 17.666869070626387 17.884536026304993
132 1 1 17.574395145668017 16.42319365004799 16.60408374072633
133 1 1 18.409913197037106 14.538184452702565 16.826642595062584
134 1 1 17.945314635503642 12.576670383847146 17.321090670689614
135 1 1 16.254573191303198 11.658433734229861 18.11216490455862
136 1 1 14.22325411091759 11.34359490686014 18.481964233147416
137 1 1 12.375050175260634 12.010590106311868 17.723342408148163
138 1 1 11.064697155169085 13.089472651914146 16.419751011905586
139 1 1 10.583590211080475 14.096626706797084 14.54407532765087
140 1 1 10.734243883161497 14.649169687151904 12.40046246611613
141 1 1 11.15733709986225 14.521388681901152 10.167928058675976
142 1 1 11.662646140837868 14.299667360083346 7.892794715654084
143 1 1 12.15959613514196 14.104060485482448 5.586575082654354
144 1 1 12.539579480972398 13.932572851198545 3.225118437096048
145 1 1 12.804037230513512 13.785169527345394 0.8432261063169058
146 1 1 12.957604721408151 13.68024337976824 28.470397253518804
147 1 1 12.994145594753194 13.649737622112843 26.129984893902378
148 1 1 12.901054288326678 13.741771183466 23.83654284491233
149 1 1 12.668910221658136 14.019049894743153 21.615775469009876
150 1 1 12.313318941085374 14.535222953982245 19.499546886862138
151 1 1 11.966926655393682 15.250027041357637 17.47906081372971
152 1 1 12.326562062352822 15.609339417164605 15.393363205933799
153 1 1 13.738673257104097 14.596840598655046 14.101846854782632
154 1 1 15.777469714925235 14.188860380269752 13.335425674230722
155 1 1 17.941537754578565 13.696964406742353 12.915889354034162
156 1 1 20.273442904037818 13.563044874656306 12.967469317018724
157 1 1 22.711484464656017 13.60902938478993 13.036645726968823
158 1 1 25.200781378614252 13.80167505416708 13.085732782590236
159 1 1 27.746905857235408 14.120380599179368 13.104689345048367
160 1 1 0.3127072969630012 14.540909380787491 13.08886119789984
161 1 1 2.8591511620381826 15.033500752427873 13.028154579062964
162 1 1 5.3557425491197295 15.595612980710579 12.8887393074899
163 1 1 7.763793397428863 16.19083229741847 12.641056345596814
164 1 1 10.082642374737931 16.80416838761653 12.217922583311186
165 1 1 12.342891018283591 16.874577961285738 11.54127455310005
166 1 1 14.383905993030936 16.033488409065555 10.703857613084944
167 1 1 14.901573426572346 13.820228575854888 11.216029919914053
168 1 1 13.561297376393316 12.106079811781564 12.086667439247758
169 1 1 11.787064203281377 10.70265987042794 13.242562628202936
170 1 1 9.185811857553132 10.582671735020735 13.585753119467757
171 1 1 6.689291698527292 10.788063105020255 14.012755864708636
172 1 1 4.216279843946711 10.849622064828168 14.483638766430474
173 1 1 1.7794212740030129 10.719988683020519 14.969930990875122
174 1 1 29.41352628912059 10.351387363306818 15.441454083806661
175 1 1 27.175339856013665 9.707151548613643 15.868683694998396
176 1 1 25.118294128304765 8.759951248672289 16.23024940707561
177 1 1 23.305349363109332 7.4837781492955004 16.508526931476847
178 1 1 21.841889228919047 5.867501508002996 16.68360376410844
179 1 1 20.884570386139572 3.9412351664395544 16.73396044343428
180 1 1 20.632625784173232 1.8309771110106254 16.641109159254615
181 1 1 21.240118409157176 29.820434867552887 16.405046830837215
182 1 1 22.637700139163755 28.278357072169733 16.06288742520573
183 1 1 24.521596069906586 27.407419319114872 15.672063064754028
184 1 1 26.589844105397592 27.171728371747903 15.272021271045187
185 1 1 28.66556738440583 27.445090410923033 14.877641338954652
186 1 1 0.665025411750261 28.11172001006066 14.49136810202093
187 1 1 2.549960287967179 29.086124603441593 14.112641867335764
188 1 1 4.303430177263933 0.3049941720684695 13.743419378739292
189 1 1 5.923617870799409 1.7145117961832177 13.390935292166914
190 1 1 7.4247474058808125 3.262137273438562 13.066182998181638
191 1 1 8.829202973758424 4.9016637624637065 12.780073147613754
192 1 1 9.71836066521744 6.864336921622183 12.569798634532955
193 1 1 10.13216752255492 8.888071386040778 11.995650900261678
194 1 1 10.462533509604915 10.945155926458876 11.587271235975784
195 1 1 11.478794437658566 12.625949844166323 12.47927122609147
196 1 1 12.46539815512737 12.701934948755786 14.366387204358888
197 1 1 13.261970008533446 13.608202375416786 16.091592933569995
198 1 1 15.228434543609593 13.533662699610389 15.518495494334728
199 1 1 14.808348662409097 12.042357719456042 14.128431778400131
