ITEM: TIMESTEP
93
ITEM: NUMBER OF ATOMS
200
ITEM: BOX BOUNDS pp pp pp
0 30.0
0 30.0
0 30.0
ITEM: ATOMS id mol type x y z
0 0 0 9.815877378399527 10.794889335948518 20.630531489455606
1 0 0 9.105027015865788 11.285482244017821 22.197305896055955
2 0 0 8.407767245619747 11.769296179099662 23.773864914810233
3 0 0 7.820641875883788 12.200214749569366 25.41110733845048
4 0 0 7.3056979129428035 12.60470483880702 27.080700750830342
5 0 0 6.83987825931725 13.002189931580391 28.767930287268676
6 0 0 6.401494657086057 13.405551863011956 0.46270489548448523
7 0 0 5.978526646735302 13.82082604118741 2.16014730254578
8 0 0 5.568819946501943 14.2594860382635 3.8565892487135125
9 0 0 5.169106399171149 14.737368021708734 5.546399861429179
10 0 0 4.775816008695042 15.267191832362558 7.2237821700676
11 0 0 4.387177594576504 15.857348203887154 8.883598242443133
12 0 0 3.9891826227720317 16.51447942425392 10.517444493386277
13 0 0 3.545298539113134 17.2401978992944 12.1117136123095
14 0 0 3.1192361934776605 17.59663764138011 13.832965558862828
15 0 0 2.634367988719099 18.03472121047823 15.520786857301607
16 0 0 2.11869242750252 18.537077109566376 17.182699533951755
17 0 0 1.5755686207007948 19.090558786498523 18.820869251618795
18 0 0 0.9993230922013676 19.68798419968842 20.433536846712002
19 0 0 0.38879184860633603 20.325756363011674 22.019272951876378
20 0 0 29.75261216880479 21.004013558766978 23.57935480611307
21 0 0 29.110567595960426 21.724338298439168 25.119549476784037
22 0 0 28.490741196332117 22.49954284494718 26.643554225738146
23 0 0 27.94377934084626 23.362121030908455 28.15000907635639
24 0 0 27.528852663298473 24.352631320001752 29.621376982022994
25 0 0 27.27570636775956 25.498716281908024 1.0170855269775996
26 0 0 26.45396569355374 26.79174460269305 2.017684908125972
27 0 0 25.0705218411538 27.640062950605603 2.8552452688150782
28 0 0 23.767759674524115 28.59759661040161 3.7047484299377182
29 0 0 22.54333483768197 29.669607460982974 4.534849215277174
30 0 0 21.378564006347602 0.8313848739008984 5.330907190082769
31 0 0 20.24930779981566 2.056216778768399 6.0842333978068295
32 0 0 19.131226341176802 3.3196925475165244 6.790491699083544
33 0 0 18.004748754768688 4.601391034190297 7.450797730872303
34 0 0 16.857866518007338 5.883152162688164 8.076188919326109
35 0 0 15.690652880246454 7.1532794381104114 8.688781895188137
36 0 0 14.509320397088405 8.405160862153455 9.31376246409331
37 0 0 13.34239980714851 9.646066703499208 9.987646567547866
38 0 0 12.157526822698042 11.036629521570413 10.172968383510733
39 0 0 10.832486644371029 12.306297833990055 10.135291744492667
40 0 0 9.529204603878673 12.837633268582337 11.330875144744873
41 0 0 9.40193886985354 12.645632886101637 13.161233292232454
42 0 0 10.363656248031678 11.938161825141563 14.58362077728968
43 0 0 11.689521502796246 11.049106310152736 15.505083155164707
44 0 0 13.493372960762787 10.95489478888427 15.793768751431438
45 0 0 15.304574593565832 11.065974705494465 16.000203670241444
46 0 0 16.812938672225517 11.91527482153333 15.41106266631348
47 0 0 17.50894407032893 13.567211191339059 15.074695450789418
48 0 0 18.050454918791644 15.242145991332501 14.576037771533256
49 0 0 18.720027272000316 16.689385723903982 13.714330035317506
50 0 0 19.278351492184363 18.1813388308355 12.864232621392386
51 0 0 19.474458829780048 19.70107917781526 11.921626994501883
52 0 0 19.079822700692304 20.94856345340436 10.69357752036788
53 0 0 18.39511510212122 21.10108229734407 9.0449685435936
54 0 0 18.377845826594285 20.138049822000884 7.535132768298313
55 0 0 18.57453799797102 19.024171073405768 6.146095112856248
56 0 0 18.725430325579172 18.04690845416129 4.650960194194137
57 0 0 18.884149271556986 17.206930305665487 3.0739988120028303
58 0 0 19.08849908006369 16.51826578101413 1.429117368202246
59 0 0 19.353338277833505 15.989996004781728 29.73331742489885
60 0 0 19.682294191414776 15.619959231100367 28.00635682955585
61 0 0 20.065351835949805 15.414352095384663 26.26228873160122
62 0 0 20.477658783340846 15.388053856962287 24.511617106451094
63 0 0 20.880257789740842 15.532619636047883 22.762776332294813
64 0 0 21.240131229405513 15.728937050403019 21.00887175949321
65 0 0 21.268997339695936 16.01326532994739 19.229608203799863
66 0 0 19.98098995428525 16.517048763361515 18.06593953665415
67 0 0 19.23811444362988 18.123941985896558 17.700199568558876
68 0 0 18.99885117867896 19.912403610330873 17.797689741929094
69 0 0 18.76461249514623 21.697461904237212 17.96288206310523
70 0 0 18.531834063500344 23.476027134290543 18.198158244169388
71 0 0 18.30834274397358 25.24927108556856 18.488662538757467
72 0 0 18.104406099730415 27.01951708064022 18.816621463124168
73 0 0 17.925085241832246 28.788906614558236 19.166136968471466
74 0 0 17.77396909581271 0.5594769415080624 19.525949635260485
75 0 0 17.65520104894145 2.332991000532297 19.88748055055753
76 0 0 17.572575669225728 4.11028933531602 20.244422447676612
77 0 0 17.530113171423434 5.891110292724274 20.593698981181287
78 0 0 17.533839151930376 7.6744170992344385 20.935668308376044
79 0 0 17.59369537720775 9.45815384462299 21.2738737782058
80 0 0 17.721362770519917 11.239650934137584 21.607339516142382
81 0 0 17.90351426375061 13.019063918568458 21.927828343213605
82 0 0 18.345286819559657 14.757038449363186 21.635696602873452
83 0 0 19.00392199427222 16.338313052883002 21.024924807375225
84 0 0 19.951314963284222 17.50960136300501 20.00850142405358
85 0 0 21.10575240452879 18.12236739548984 18.741165116653516
86 0 0 21.662016677415572 17.93495818864505 17.022152014127116
87 0 0 22.217562942334425 17.747605216000494 15.305332732608884
88 0 0 22.797494355399454 17.575903231865308 13.59690995704829
89 0 0 23.406163579115066 17.420155515701495 11.89873998042258
90 0 0 24.047111905597735 17.27145872740662 10.213548134835927
91 0 0 24.72455938786085 17.12105862209922 8.544889452765254
92 0 0 25.44026145747943 16.964052382889708 6.895183791459871
93 0 0 26.196594302497036 16.798908158097856 5.26691773058996
94 0 0 26.99725778274109 16.625066180329643 3.66334050601231
95 0 0 27.845842366809872 16.442823604886385 2.087973124453673
96 0 0 28.745336918486885 16.253329695265588 0.5445000083374584
97 0 0 29.700044364729862 16.058114048677325 29.037931578573666
98 0 0 0.7116052385324688 15.858667404201777 27.57218916751577
99 0 0 1.7220158501609684 15.659455712165176 26.1082974926175
100 1 1 20.767823629287665 20.19562091200802 8.512567196895066
101 1 1 21.681246202127245 21.40245905753048 6.970616798759671
102 1 1 22.708274949160078 22.61028467452662 5.287969543079229
103 1 1 23.831335182397428 23.865157512778524 3.4257675994267602
104 1 1 25.0654821527321 25.208778534052225 1.3399274032216286
105 1 1 26.503786590411675 26.671165473580714 29.128990780923147
106 1 1 28.016582573919354 28.132065287760398 26.81759419535375
107 1 1 29.552132681207006 29.574123709888163 24.432643743118305
108 1 1 1.079264898125779 0.971902370635603 22.02580643780062
109 1 1 2.5685309187979706 2.307267534654875 19.645536381989015
110 1 1 3.994856632938539 3.57133244735253 17.335764379991446
111 1 1 5.342277517033366 4.764636381308233 15.137578859225485
112 1 1 6.606228850699106 5.8858540567869575 13.084991407358487
113 1 1 7.936918358272759 6.882256853184682 11.217761821271655
114 1 1 9.53999493215748 7.9068963969335275 9.811316466718063
115 1 1 11.125855315890702 9.075471831903728 8.714979122064642
116 1 1 12.613860227793408 10.520203095007513 8.055455843262118
117 1 1 13.591038920471176 12.31397464549103 8.639773173508209
118 1 1 13.235471565009224 14.029532033979827 9.800271010070967
119 1 1 12.922651631927474 14.685258311614648 11.881062150807102
120 1 1 14.098923595085019 16.25470272466374 12.827518948654332
121 1 1 14.357784591439625 16.93274903175763 14.790865323039428
122 1 1 13.734064424361737 17.247113340885907 16.749898287174513
123 1 1 14.175136602138865 16.03350887719599 18.369826560794824
124 1 1 15.980515742318797 15.095340154019448 18.00305409540372
125 1 1 17.71798961798178 15.456776604067768 19.068639950576696
126 1 1 19.52289419826861 14.578023199192325 19.577329272916458
127 1 1 18.476226832350864 12.805590365108593 19.72554859637165
128 1 1 16.506233356621408 13.426694686051812 19.88134523443988
129 1 1 15.571989032947222 15.17735812451332 20.468109242737913
130 1 1 15.935142259941726 17.097778534999474 19.783852627833785
131 1 1 16.52985496311271 17.6599914534136 17.882001369307897
132 1 1 17.589756449896655 16.412508973114186 16.615397075665232
133 1 1 18.437811818554927 14.536326396321883 16.85832851341461
134 1 1 17.909106247362452 12.587518521548187 17.338318643493913
135 1 1 16.21565260243459 11.667646037885532 18.126920763380202
136 1 1 14.156887174762895 11.420662011751105 18.39286968160449
137 1 1 12.309271122150081 12.102366101627776 17.63687602317658
138 1 1 10.99882606295982 13.155877365433238 16.2964991885765
139 1 1 10.630371592856294 14.14367119221758 14.394532267711991
140 1 1 10.719877809808226 14.646602667500112 12.261133285285668
141 1 1 11.08270308474841 14.553480597040751 10.045082873125155
142 1 1 11.641457828358236 14.30987629330529 7.81278575951428
143 1 1 12.11605076332439 14.109630757319787 5.528209310146656
144 1 1 12.491013675689205 13.94172589821378 3.2126404350589515
145 1 1 12.75447341051109 13.804141581974138 0.876559020162657
146 1 1 12.907536956499538 13.712240226351202 28.54200054271487
147 1 1 12.946002147014472 13.695399412066324 26.23023396974776
148 1 1 12.860690778951865 13.796954568147271 23.960493819797076
149 1 1 12.646304406084667 14.070782756008546 21.75168671912211
150 1 1 12.330346180072137 14.55586061088227 19.626377200111644
151 1 1 12.062462461999072 15.166159644701386 17.559394878344165
152 1 1 12.472532885401513 15.482588007186628 15.483321989884258
153 1 1 13.977421799522856 14.596186604787771 14.213424208173224
154 1 1 15.997212715523117 14.234202377563763 13.403420887662763
155 1 1 18.154827181508146 13.767923615048776 12.954928699960192
156 1 1 20.454557920572686 13.636221784987745 12.975708718945903
157 1 1 22.833515213899393 13.682693027224555 13.02835738310404
158 1 1 25.30030329053685 13.87309479738947 13.071776604223215
159 1 1 27.78333254547089 14.178550526337816 13.087354673436222
160 1 1 0.29862593203662424 14.579063822815103 13.065994587383809
161 1 1 2.800834228519689 15.049208523413217 12.99529396565839
162 1 1 5.244497650155394 15.584954617866932 12.844913521693353
163 1 1 7.6337267590449205 16.17565191077984 12.572060518105388
164 1 1 9.904222604786133 16.754790855607645 12.11904178994959
165 1 1 12.124652974302435 16.753602058357938 11.412035604035845
166 1 1 14.152490606752094 15.892245259580593 10.669854213614903
167 1 1 14.74077657977188 13.729700477004371 11.356379388640432
168 1 1 13.45638851110178 11.993151852624905 12.19137987780565
169 1 1 11.668442814123756 10.662087387947699 13.295601046225999
170 1 1 9.154054565928353 10.531698141826487 13.632042066863809
171 1 1 6.719888706798254 10.712295257743255 14.031788051730565
172 1 1 4.284155145801891 10.75499744820133 14.480638157646395
173 1 1 1.8806632229624878 10.614111464911751 14.948554347633706
174 1 1 29.56127742127498 10.251676033477079 15.403660270016914
175 1 1 27.35618003285037 9.630702637553158 15.822634947202152
176 1 1 25.31157176767008 8.715429419474727 16.183957406996598
177 1 1 23.4977010024107 7.477361159670124 16.467036652233098
178 1 1 22.017091104658427 5.8988026732886585 16.650757408901914
179 1 1 21.027610567488058 4.00069561516941 16.711417899577977
180 1 1 20.738115462769848 1.9021007160206596 16.62741498964569
181 1 1 21.317276058768844 29.889070046611007 16.396224128639037
182 1 1 22.701282458529754 28.343338734212374 16.05523816192511
183 1 1 24.577627203921683 27.47460895893784 15.664229883317132
184 1 1 26.636950283981747 27.243664125890906 15.264023487129027
185 1 1 28.700905052076447 27.520403228999697 14.869825136429354
186 1 1 0.6863713857723919 28.18711663525619 14.484324453919195
187 1 1 2.5562194914027603 29.156928384970822 14.107570171235647
188 1 1 4.295339769990847 0.36462723062532215 13.742251083642588
189 1 1 5.904129423036091 1.7548034642387975 13.395394990294452
190 1 1 7.396420504361535 3.276880529311096 13.076829697289165
191 1 1 8.791527017870902 4.889951067667072 12.798032158985576
192 1 1 9.731179770461143 6.806335843266724 12.635820813473462
193 1 1 10.100703583887055 8.814144143515684 12.045653684372503
194 1 1 10.384499824818969 10.852656402193313 11.571707929160949
195 1 1 11.368068464563414 12.562542286650455 12.425311748195229
196 1 1 12.457265455699764 12.723428693964495 14.254372517151783
197 1 1 13.27521832033181 13.395447073793262 16.06512185863516
198 1 1 15.280717488349447 13.456028184743987 15.640061481727571
199 1 1 14.876131448705795 12.089220006392 14.128310070378417
