ITEM: TIMESTEP
95
ITEM: NUMBER OF ATOMS
200
ITEM: BOX BOUNDS pp pp pp
0 30.0
0 30.0
0 30.0
ITEM: ATOMS id mol type x y z
0 0 0 9.764301060003083 10.828632728375286 20.715895470755463
1 0 0 9.074556789001356 11.308169110068164 22.295345476065815
2 0 0 8.386247063092306 11.78720859996193 23.877026521016546
3 0 0 7.802821330652884 12.217790894331198 25.515281463839322
4 0 0 7.290517167558432 12.62432676850753 27.184596670672544
5 0 0 6.824800671291019 13.026540672177365 28.869964758652273
6 0 0 6.3845729109769565 13.435837336620938 0.5619038829852147
7 0 0 5.9598327444215276 13.858205450340307 2.2559648802859513
8 0 0 5.549167093969343 14.305959334243045 3.948262801115102
9 0 0 5.150013403762213 14.7944074178975 5.633332315367889
10 0 0 4.75746239842519 15.335608014635206 7.305320475654443
11 0 0 4.3581468502235206 15.938842991257937 8.956071955653712
12 0 0 3.9245352003207734 16.615565682393445 10.57087370939085
13 0 0 3.44462621526045 17.336002363820732 12.155158088623518
14 0 0 3.0444356687364307 17.69612598312747 13.879303939328823
15 0 0 2.5833523750031953 18.115486160046117 15.575688063392812
16 0 0 2.068260946995577 18.609538169589268 17.23724752047633
17 0 0 1.5174731544860727 19.15918588334881 18.871025945128277
18 0 0 0.9370929890419497 19.75584828318083 20.4790796888164
19 0 0 0.3327573322293945 20.397434678000007 22.06230553769702
20 0 0 29.718267071262556 21.084369384857066 23.624172884381533
21 0 0 29.114146903845633 21.824346494995932 25.167440307621874
22 0 0 28.553881976191278 22.641197301453857 26.689960050138115
23 0 0 28.07972038398484 23.565568546361913 28.181612606825038
24 0 0 27.728810467733663 24.621377388627668 29.620989190500172
25 0 0 27.505559290438754 25.803113392047422 0.9878163778579918
26 0 0 26.550707801579975 26.93042313078518 2.0609843064485434
27 0 0 25.18201396784795 27.813014328624153 2.878670879584273
28 0 0 23.861498526443967 28.76889658808939 3.6936224947311147
29 0 0 22.60770268890375 29.816665687740873 4.502022741189075
30 0 0 21.40905351853252 0.9467536830311387 5.284435911713105
31 0 0 20.246384712592327 2.1393525621374567 6.02874577353019
32 0 0 19.100540872654953 3.3723144161653003 6.733520827046827
33 0 0 17.95374594450508 4.624656696139059 7.403967832705023
34 0 0 16.805422081201204 5.881493580657109 8.065746559212275
35 0 0 15.66076662601962 7.142365835768172 8.728016168378227
36 0 0 14.534809061803454 8.409074459064865 9.413188855358321
37 0 0 13.43492865038596 9.689790043473247 10.11698940525942
38 0 0 12.188565316726745 11.005392995414745 10.40117728097157
39 0 0 10.854205342096414 12.245957295453577 10.176537370697645
40 0 0 9.398424409173586 12.714160222647866 11.206963621095264
41 0 0 9.202835387236124 12.60744252785049 13.036292882713697
42 0 0 10.213813609766687 12.059478476961257 14.48509213620034
43 0 0 11.55085948380857 11.213576099820175 15.437323100154606
44 0 0 13.327495391644266 10.831754358966922 15.673410834085415
45 0 0 15.141450787458247 10.893790132706098 15.902028148442177
46 0 0 16.773440476418987 11.582937035097446 15.44092459389179
47 0 0 17.626916309644457 13.164802821588621 15.108598317428978
48 0 0 17.964672785224394 14.940191294292505 14.838641299755528
49 0 0 18.481672661773306 16.413554614306047 13.929761782205453
50 0 0 18.98882297279179 17.87335372614946 13.003198145454151
51 0 0 19.258936225793637 19.343196758021584 12.004947972465901
52 0 0 19.05832990749374 20.609493636039446 10.75031921180448
53 0 0 18.463797407583822 20.94038405531111 9.093342081235996
54 0 0 18.412325182589537 20.079693320079052 7.523598112060217
55 0 0 18.558790071246584 19.03841377452337 6.072729333168489
56 0 0 18.73192857348397 18.054145104295134 4.5848017775590755
57 0 0 18.904123739401097 17.225319905192453 3.0047411366328522
58 0 0 19.11579008382286 16.547154918602924 1.3585139914085822
59 0 0 19.386678938910713 16.027563691594086 29.66317662441695
60 0 0 19.717019065688582 15.670728198489119 27.935845971300207
61 0 0 20.094818002750756 15.483833254989303 26.190790873562808
62 0 0 20.494148680434716 15.46922505417718 24.439897805403728
63 0 0 20.874413282073526 15.57367025585614 22.686980417164147
64 0 0 21.261160793891616 15.6846797289379 20.934857664156016
65 0 0 21.24860487007368 16.013455952298095 19.16652595093218
66 0 0 19.91803505937825 16.57741400309092 18.08952424457644
67 0 0 19.207048442725583 18.203493911971677 17.77391331678573
68 0 0 18.981688119581488 19.98892155899914 17.863908739657568
69 0 0 18.753724696959903 21.769693798935226 18.027507382124323
70 0 0 18.529311901473896 23.54476199135779 18.255995578581498
71 0 0 18.316693728481347 25.314763961297626 18.535033170864647
72 0 0 18.121311056869537 27.08169650633244 18.84975507450047
73 0 0 17.948361697418466 28.8475003482706 19.1869663177053
74 0 0 17.80263363477936 0.6139995990956578 19.53649392166467
75 0 0 17.689017267446047 2.382906570016805 19.890552819856044
76 0 0 17.612457448515332 4.154571100251898 20.243429502042638
77 0 0 17.578407770851033 5.928584460617851 20.592422816432165
78 0 0 17.593853471804238 7.704405515507413 20.936187993676363
79 0 0 17.66586223192731 9.480103194778605 21.273946245063243
80 0 0 17.79202698951298 11.249223441789375 21.626926238409737
81 0 0 17.96855440275787 13.012553816534927 21.99859612539657
82 0 0 18.408253907432538 14.735109580746853 21.6625213058446
83 0 0 19.041539337922412 16.317071879392852 21.051266547992242
84 0 0 19.97058578996424 17.53508801591906 20.08855295209613
85 0 0 21.11412654532741 18.171327424645604 18.83637309631961
86 0 0 21.666134626937698 17.979350555485436 17.125215730646776
87 0 0 22.217538769780173 17.787518671908167 15.415796376443673
88 0 0 22.78706092434468 17.602654597327003 13.713002139501882
89 0 0 23.392452426755437 17.435741565607113 12.022245756999657
90 0 0 24.029151868912653 17.279373622156662 10.34331823407218
91 0 0 24.700268459936396 17.126672505278464 8.679035029581401
92 0 0 25.409661979939695 16.970664762229593 7.032811972171506
93 0 0 26.159618143012764 16.807259971953908 5.407081581989317
94 0 0 26.952992011577397 16.63539735286222 3.8045500690614933
95 0 0 27.79328755420986 16.455318891514338 2.2287161150313772
96 0 0 28.684096396453327 16.26788271524709 0.6834965108071861
97 0 0 29.632101956208174 16.073966570234155 29.175226900054803
98 0 0 0.6295990717030524 15.875528970541572 27.701566990573156
99 0 0 1.6263436591731857 15.677268188772262 26.22912276197568
100 1 1 21.181564625922178 20.71784062750221 7.838110044432149
101 1 1 22.111878302980994 21.85030285945708 6.27927974520468
102 1 1 23.099454106626666 23.003545123875696 4.617883600520594
103 1 1 24.167490708002987 24.196796770793664 2.8137090271533713
104 1 1 25.31513599279033 25.437030180393574 0.8603857839697713
105 1 1 26.670119817018467 26.778683422431047 28.812047310150433
106 1 1 28.089392685337312 28.144209624404855 26.64739550787016
107 1 1 29.536186383087404 29.506601131955975 24.405258677126042
108 1 1 0.9821314806897042 0.8430067868457108 22.13171576634218
109 1 1 2.402682602544262 2.136705614849655 19.8703329150483
110 1 1 3.779283993474831 3.3757523450432934 17.663024618042186
111 1 1 5.1015233482669435 4.555731670642812 15.55005512698746
112 1 1 6.381496464207519 5.669333493315225 13.564827737791443
113 1 1 7.657078549541101 6.745172529036973 11.722223431912829
114 1 1 9.172536179251479 7.758292982796499 10.236475124960794
115 1 1 10.733552096725619 8.952220551504679 9.154087029855074
116 1 1 12.1652187978858 10.352099256443145 8.319310189959788
117 1 1 13.243519758516307 12.14498436648146 8.681725875302856
118 1 1 12.912494475011112 13.675575091630376 10.084694141058641
119 1 1 12.676861532998203 14.500769462160571 12.099987398502686
120 1 1 13.651547340274183 16.240917071240684 12.871335398190128
121 1 1 14.338993080992799 17.021860170252662 14.676560778640019
122 1 1 13.819825098336642 17.245549826513106 16.673543399854488
123 1 1 14.234279212776682 16.09798888406606 18.345553817242745
124 1 1 16.00008856872357 15.073836416086277 18.012601118469792
125 1 1 17.709458647125487 15.473484400210696 19.111207434715393
126 1 1 19.50745821015395 14.524441121224742 19.49593505111469
127 1 1 18.467266146322093 12.75958067527528 19.755263800243924
128 1 1 16.511977538112298 13.427025628308261 19.903665145095196
129 1 1 15.583362671277735 15.19062413069396 20.47484460434
130 1 1 15.970108504791925 17.121636713431148 19.82165716323347
131 1 1 16.53041875810519 17.64533776619792 17.895402944265328
132 1 1 17.6282421601741 16.400559070173248 16.656472380355694
133 1 1 18.46827875829931 14.521826696749418 16.940388473937926
134 1 1 17.80687649862581 12.599929203715485 17.358946695603297
135 1 1 16.08720436779561 11.71216059550908 18.124619085309764
136 1 1 13.998946158021717 11.604816754858927 18.19181413281144
137 1 1 12.076850528294928 12.205343647498598 17.5644697024105
138 1 1 11.02887955996821 13.34524673222757 16.083395106470356
139 1 1 10.63630277313732 14.270582999169404 14.15561731056083
140 1 1 10.45593853018142 14.563706243771854 11.987545582186135
141 1 1 10.856377906423157 14.619381221207924 9.792671310414637
142 1 1 11.556612627189025 14.345091147773463 7.662898789365065
143 1 1 12.03456498284665 14.134016261962186 5.44782429715865
144 1 1 12.39360189732052 13.969332778280323 3.198139462986739
145 1 1 12.653297589506037 13.8471247599274 0.9333268398320163
146 1 1 12.806991815442851 13.777981779802381 28.668083558882817
147 1 1 12.8510659787766 13.785101587252882 26.414459693394267
148 1 1 12.782433400857423 13.90242518006721 24.184735612836413
149 1 1 12.607717518734258 14.165263416560236 21.993246503870022
150 1 1 12.381073685969445 14.566930787391343 19.843872698990427
151 1 1 12.223852091644376 14.951229137085189 17.70313566832224
152 1 1 12.798502508133621 15.23369544912726 15.640553227813776
153 1 1 14.372390657418046 14.594600262931351 14.293943489812435
154 1 1 16.37195634529609 14.209735721286961 13.48672930585465
155 1 1 18.538904603795334 13.884266036693967 13.03838930271956
156 1 1 20.80604858093246 13.784469346430432 13.006512966231517
157 1 1 23.12396954772201 13.832611185467409 13.02364391931766
158 1 1 25.48854172376514 14.010868903619977 13.04530017818917
159 1 1 27.87743197584125 14.292030085416737 13.046891467194017
160 1 1 0.28443662588049284 14.656725894627598 13.010592850111449
161 1 1 2.679619076962611 15.087268442145442 12.917874763193476
162 1 1 5.033913242750151 15.578244988869415 12.738419595259943
163 1 1 7.322697519756275 16.113912145426465 12.424456722990739
164 1 1 9.53477198998206 16.62002546413086 11.922517606609409
165 1 1 11.752739982387933 16.46762748554597 11.258744422988478
166 1 1 13.8283085113376 15.635920513732708 10.718067540515813
167 1 1 14.524600380932577 13.578387100872396 11.56205959424091
168 1 1 13.304174262948724 11.778415462040819 12.295954674610437
169 1 1 11.488502825917767 10.590503495676513 13.35493721086358
170 1 1 9.07752633083678 10.449242502989069 13.715108532794906
171 1 1 6.7390567732794695 10.565220163862273 14.07786740579236
172 1 1 4.409827806678455 10.571302568797485 14.482208548332668
173 1 1 2.108600134660006 10.416608955617303 14.907855241772648
174 1 1 29.869944545987963 10.06712054530588 15.332021659526834
175 1 1 27.7218101610331 9.486128665826303 15.733780213817012
176 1 1 25.705323840622036 8.632950344073068 16.09183384421814
177 1 1 23.886358752203297 7.468143542713473 16.383563819133713
178 1 1 22.36786240388918 5.961757404446114 16.584297412974077
179 1 1 21.312119171627856 4.119762334528955 16.665795597509
180 1 1 20.943272740125963 2.0457728352585995 16.600564007865774
181 1 1 21.45927326673682 0.02537341160817593 16.38035061219368
182 1 1 22.812862883498003 28.466119549992754 16.042147510296722
183 1 1 24.675523933399795 27.59639238984257 15.65055016439545
184 1 1 26.72042948159073 27.372130967134215 15.249695603129515
185 1 1 28.763931473785004 27.654425934011964 14.855825511440843
186 1 1 0.7232428179924183 28.319973128088815 14.4723226021917
187 1 1 2.564062745505851 29.278109176050688 14.100189797181025
188 1 1 4.276199715623561 0.4613613254051257 13.742480078891294
189 1 1 5.8644933151460785 1.8158596215475387 13.405031284877767
190 1 1 7.342156051507914 3.2979947375534238 13.096859843046833
191 1 1 8.718476361526788 4.8826681948663 12.842738670647103
192 1 1 9.78021202073698 6.715875362317951 12.727890783691128
193 1 1 10.089704530422477 8.736477014564727 12.202609420965192
194 1 1 10.24448193634424 10.736242470831577 11.555470133903063
195 1 1 11.199045968998394 12.475637143524922 12.370836311207896
196 1 1 12.421355835019762 12.81503639221538 14.072221895932936
197 1 1 13.432386282839719 13.058691483496528 15.876465629932756
198 1 1 15.475162689404304 13.306904793751295 15.874910704940117
199 1 1 14.958649494150665 12.244541708656897 14.148957227965735
